LAMMPS (29 Aug 2024 - Update 1)
OMP_NUM_THREADS environment is not set. Defaulting to 1 thread. (src/comm.cpp:98)
  using 1 OpenMP thread(s) per MPI task
suffix omp
package omp 6
set 6 OpenMP thread(s) per MPI task
using multi-threaded neighbor list subroutines

units real
atom_style full

boundary p p p

read_data ../inputs/coarse_grained_cellulose.data
Reading data file ...
  orthogonal box = (0 0 0) to (71.503201 63.860402 51.942501)
  1 by 1 by 1 MPI processor grid
  reading atoms ...
  4320 atoms
  scanning bonds ...
  3 = max bonds/atom
  scanning angles ...
  4 = max angles/atom
  scanning impropers ...
  3 = max impropers/atom
  orthogonal box = (0 0 0) to (71.503201 63.860402 51.942501)
  1 by 1 by 1 MPI processor grid
  reading bonds ...
  4320 bonds
  reading angles ...
  5760 angles
  reading impropers ...
  4320 impropers
Finding 1-2 1-3 1-4 neighbors ...
  special bond factors lj:    0        0        0       
  special bond factors coul:  0        0        0       
     4 = max # of 1-2 neighbors
     6 = max # of 1-3 neighbors
    12 = max # of 1-4 neighbors
    16 = max # of special neighbors
  special bonds CPU = 0.002 seconds
  read_data CPU = 0.056 seconds

group cl1 type 1
1440 atoms in group cl1
group cl2 type 2
1440 atoms in group cl2
group cl3 type 3
1440 atoms in group cl3
group cl type 1 2 3
4320 atoms in group cl

mass 1 68.0
mass 2 60.0
mass 3 34.0

bond_style harmonic
angle_style harmonic
improper_style harmonic
pair_style hybrid/overlay lj/smooth 6.0 8.0 hbond/dreiding/lj/angleoffset 4 16.0 25.0 120.0 170.0
pair_modify pair lj/smooth shift yes

special_bonds lj/coul 0.0 0.0 0.0 angle no dihedral no one/five no

comm_modify mode single cutoff 16.0

bond_coeff 1 64.06 5.270 # CL1-CL1
bond_coeff 2 82.42 2.493 # CL2-CL1
bond_coeff 3 112.3 2.066 # CL3-CL1

angle_coeff 1 30.97 163.5 # CL1-CL1-CL1
angle_coeff 2 38.79  74.2 # CL2-CL1-CL1_1
angle_coeff 3 30.52  93.2 # CL3-CL1-CL1_1
angle_coeff 4 27.28  90.0 # CL2-CL1-CL1_2
angle_coeff 5 25.97 102.0 # CL3-CL1-CL1_2
angle_coeff 6 22.42 166.3 # CL2-CL1-CL3

improper_coeff 1 0.1702 178.0 # CL1-CL1-CL1-CL1
improper_coeff 2 0.1555   2.3 # CL2-CL1-CL1-CL3
improper_coeff 3 0.1698   2.9 # CL3-CL1-CL1-CL2

pair_coeff 1 2 hbond/dreiding/lj/angleoffset 3 i 1.404 6.017 4 6.017 7.8221 135.0 173.1 # CL1-CL2
pair_coeff 1 3 hbond/dreiding/lj/angleoffset 2 i 1.404 6.017 4 6.017 7.8221 135.0 173.1 # CL1-CL3
pair_coeff 1 1 lj/smooth 0.9031 5.101 10.202 10.7121                     # CL1-CL1
pair_coeff 1 2 lj/smooth 0.9031 4.201  8.402  8.8221                     # CL1-CL2
pair_coeff 1 3 lj/smooth 0.9031 4.101  8.202  8.6121                     # CL1-CL3
pair_coeff 2 2 lj/smooth 0.9031 5.101 10.202 10.7121                     # CL2-CL2
pair_coeff 2 3 lj/smooth 0.5031 4.083  8.166  8.5743                     # CL2-CL3
pair_coeff 3 3 lj/smooth 0.9031 5.101 10.202 10.7121                     # CL3-CL3

timer timeout 3:59:00 every 1000
New timer settings: style=normal  mode=nosync  timeout=03:59:00

fix relaxation cl1 spring/self 10.0
minimize 1.0e-4 1.0e-6 100 1000

CITE-CITE-CITE-CITE-CITE-CITE-CITE-CITE-CITE-CITE-CITE-CITE-CITE

Your simulation uses code contributions which should be cited:

- Type Label Framework: https://doi.org/10.1021/acs.jpcb.3c08419

@Article{Gissinger24,
 author = {Jacob R. Gissinger, Ilia Nikiforov, Yaser Afshar, Brendon Waters, Moon-ki Choi, Daniel S. Karls, Alexander Stukowski, Wonpil Im, Hendrik Heinz, Axel Kohlmeyer, and Ellad B. Tadmor},
 title = {Type Label Framework for Bonded Force Fields in LAMMPS},
 journal = {J. Phys. Chem. B},
 year =    2024,
 volume =  128,
 number =  13,
 pages =   {3282–-3297}
}

CITE-CITE-CITE-CITE-CITE-CITE-CITE-CITE-CITE-CITE-CITE-CITE-CITE

Generated 0 of 3 mixed pair_coeff terms from geometric mixing rule
Hybrid pair style last /omp style hbond/dreiding/lj/angleoffset
Last active /omp style is improper_style harmonic/omp
Neighbor list info ...
  update: every = 1 steps, delay = 0 steps, check = yes
  max neighbors/atom: 2000, page size: 100000
  master list distance cutoff = 12.7121
  ghost atom cutoff = 16
  binsize = 6.35605, bins = 12 11 9
  3 neighbor lists, perpetual/occasional/extra = 3 0 0
  (1) pair lj/smooth, perpetual
      attributes: half, newton on, omp
      pair build: half/bin/newton/omp
      stencil: half/bin/3d
      bin: standard
  (2) pair hbond/dreiding/lj/angleoffset, perpetual, skip from (3)
      attributes: full, newton on, omp, cut 9.822099999999999
      pair build: skip/omp
      stencil: none
      bin: none
  (3) neighbor class addition, perpetual
      attributes: full, newton on, omp, cut 9.822099999999999
      pair build: full/bin/omp
      stencil: full/bin/3d
      bin: standard
WARNING: Inconsistent image flags (src/domain.cpp:1051)
Per MPI rank memory allocation (min/avg/max) = 21.73 | 21.73 | 21.73 Mbytes
   Step          Temp          E_pair         E_mol          TotEng         Press     
         0   0              2599.2833      264.54806      2863.8314      45836.778    
        23   0             -21178.994      2375.5199     -18803.474      14127.847    
Loop time of 0.0966464 on 6 procs for 23 steps with 4320 atoms

595.6% CPU use with 1 MPI tasks x 6 OpenMP threads

Minimization stats:
  Stopping criterion = energy tolerance
  Energy initial, next-to-last, final = 
      2863.83139617528  -18802.3259785899  -18803.4743005273
  Force two-norm initial, final = 11028.459 30.651334
  Force max component initial, final = 692.52471 0.98437889
  Final line search alpha, max atom move = 0.044695115 0.043996928
  Iterations, force evaluations = 23 41

MPI task timing breakdown:
Section |  min time  |  avg time  |  max time  |%varavg| %total
---------------------------------------------------------------
Pair    | 0.081514   | 0.081514   | 0.081514   |   0.0 | 84.34
Bond    | 0.0082626  | 0.0082626  | 0.0082626  |   0.0 |  8.55
Neigh   | 0          | 0          | 0          |   0.0 |  0.00
Comm    | 0.0022321  | 0.0022321  | 0.0022321  |   0.0 |  2.31
Output  | 0          | 0          | 0          |   0.0 |  0.00
Modify  | 0.0013848  | 0.0013848  | 0.0013848  |   0.0 |  1.43
Other   |            | 0.003252   |            |       |  3.37

Nlocal:           4320 ave        4320 max        4320 min
Histogram: 1 0 0 0 0 0 0 0 0 0
Nghost:          10656 ave       10656 max       10656 min
Histogram: 1 0 0 0 0 0 0 0 0 0
Neighs:         221488 ave      221488 max      221488 min
Histogram: 1 0 0 0 0 0 0 0 0 0

Total # of neighbors = 221488
Ave neighs/atom = 51.27037
Ave special neighs/atom = 12
Neighbor list builds = 0
Dangerous builds = 0
unfix relaxation
reset_timestep 0

fix 0 all langevin 300.0 300.0 $(4000.0*dt) 114514
fix 0 all langevin 300.0 300.0 4000 114514

variable lx equal lx
variable ly equal ly
variable lz equal lz
variable px equal pxx
variable py equal pyy
variable pz equal pzz

dump 1 cl custom 1000 cl_relaxation id mol type q x y z fx fy fz
dump_modify 1 sort id

fix boxsizepressurerelaxation all ave/time 100 1 100 v_lx v_ly v_lz v_px v_py v_pz file box_size-pressure_relaxation mode scalar

compute clmsd cl msd com yes average no
fix clmsd cl ave/time 1000 1 1000 c_clmsd[*] file cl_msd_relaxation mode scalar

#fix 1 all nve
fix 1 all nvt temp 300.0 300.0 $(100.0*dt)
fix 1 all nvt temp 300.0 300.0 100
#fix 1 all npt temp 300.0 300.0 $(100.0*dt) aniso 1.0 1.0 $(100.0*dt)

velocity all create 300.0 114514

timestep 2.0
thermo 1000
thermo_modify flush yes
thermo_style custom step temp epair emol etotal pxx pyy pzz
WARNING: New thermo_style command, previous thermo_modify settings will be lost (src/output.cpp:904)
run 5000
Generated 0 of 3 mixed pair_coeff terms from geometric mixing rule
Hybrid pair style last /omp style hbond/dreiding/lj/angleoffset
Last active /omp style is improper_style harmonic/omp
WARNING: Inconsistent image flags (src/domain.cpp:1051)
Per MPI rank memory allocation (min/avg/max) = 20.61 | 20.61 | 20.61 Mbytes
   Step          Temp          E_pair         E_mol          TotEng          Pxx            Pyy            Pzz      
         0   300           -21178.994      2375.5199     -14941.239      14870.464      33797.32      -4051.118     
      1000   293.75832     -23786.234      2496.7831     -17507.571      10340.819      16888.082      5138.3491    
      2000   300.77427     -24210.331      2612.3193     -17725.808      10035.807      16041.962      4187.3225    
      3000   302.84716     -24242.415      2697.6592     -17645.866      10210.061      15798.583      4374.6797    
      4000   299.04095     -24318.956      2738.9546     -17730.113      10109.956      15837.068      4198.9677    
      5000   298.50454     -24330.579      2679.2318     -17808.364      10050.385      15798.581      4463.5485    
Loop time of 9.64377 on 6 procs for 5000 steps with 4320 atoms

Performance: 89.591 ns/day, 0.268 hours/ns, 518.469 timesteps/s, 2.240 Matom-step/s
587.0% CPU use with 1 MPI tasks x 6 OpenMP threads

MPI task timing breakdown:
Section |  min time  |  avg time  |  max time  |%varavg| %total
---------------------------------------------------------------
Pair    | 6.3681     | 6.3681     | 6.3681     |   0.0 | 66.03
Bond    | 0.95911    | 0.95911    | 0.95911    |   0.0 |  9.95
Neigh   | 0.63309    | 0.63309    | 0.63309    |   0.0 |  6.56
Comm    | 0.37346    | 0.37346    | 0.37346    |   0.0 |  3.87
Output  | 0.042551   | 0.042551   | 0.042551   |   0.0 |  0.44
Modify  | 1.2215     | 1.2215     | 1.2215     |   0.0 | 12.67
Other   |            | 0.04591    |            |       |  0.48

Nlocal:           4320 ave        4320 max        4320 min
Histogram: 1 0 0 0 0 0 0 0 0 0
Nghost:          10895 ave       10895 max       10895 min
Histogram: 1 0 0 0 0 0 0 0 0 0
Neighs:         223129 ave      223129 max      223129 min
Histogram: 1 0 0 0 0 0 0 0 0 0

Total # of neighbors = 223129
Ave neighs/atom = 51.650231
Ave special neighs/atom = 12
Neighbor list builds = 84
Dangerous builds = 0

unfix 1

#fix 1 all nve
#fix 1 all nvt temp 300.0 300.0 $(100.0*dt)
fix 1 all npt temp 300.0 300.0 $(100.0*dt) aniso 1.0 1.0 $(100.0*dt)
fix 1 all npt temp 300.0 300.0 200 aniso 1.0 1.0 $(100.0*dt)
fix 1 all npt temp 300.0 300.0 200 aniso 1.0 1.0 200

timestep 4.0
thermo 1000
thermo_modify flush yes
thermo_style custom step temp epair emol etotal pxx pyy pzz
WARNING: New thermo_style command, previous thermo_modify settings will be lost (src/output.cpp:904)
run 10000
Generated 0 of 3 mixed pair_coeff terms from geometric mixing rule
Hybrid pair style last /omp style hbond/dreiding/lj/angleoffset
Last active /omp style is improper_style harmonic/omp
WARNING: Inconsistent image flags (src/domain.cpp:1051)
Per MPI rank memory allocation (min/avg/max) = 22.57 | 22.57 | 22.57 Mbytes
   Step          Temp          E_pair         E_mol          TotEng          Pxx            Pyy            Pzz      
      5000   298.50454     -24330.579      2679.2318     -17808.364      10050.385      15798.581      4463.5485    
      6000   307.51369     -25069.164      2305.9644     -18804.232     -253.27107     -310.06482      198.06362    
      7000   297.66271     -25094.584      2242.6341     -19019.805      411.12138      137.2256       158.5728     
      8000   298.63782     -25056.965      2303.5595     -18908.707     -98.65931       101.77256     -162.29435    
      9000   301.86946     -25099.42       2345.1388     -18867.978     -324.25707     -437.91444     -228.4648     
     10000   296.44637     -25077.173      2338.0172     -18922.67       52.694622      325.48997      101.40039    
     11000   300.57868     -25036.094      2328.4869     -18837.922      186.19142      214.16941      195.65059    
     12000   296.18201     -25115.177      2340.0079     -18962.087     -303.51215     -428.84252     -22.753134    
     13000   299.95993     -25111.974      2301.6623     -18948.592      256.6757       251.71793     -227.24268    
     14000   301.27795     -25051.402      2251.9834     -18920.731      155.57661      216.40959     -136.59169    
     15000   292.59688     -25078.905      2290.9733     -19021.005      182.69413     -108.50545      836.56405    
Loop time of 26.9147 on 6 procs for 10000 steps with 4320 atoms

Performance: 128.406 ns/day, 0.187 hours/ns, 371.544 timesteps/s, 1.605 Matom-step/s
583.6% CPU use with 1 MPI tasks x 6 OpenMP threads

MPI task timing breakdown:
Section |  min time  |  avg time  |  max time  |%varavg| %total
---------------------------------------------------------------
Pair    | 17.672     | 17.672     | 17.672     |   0.0 | 65.66
Bond    | 2.2602     | 2.2602     | 2.2602     |   0.0 |  8.40
Neigh   | 3.0869     | 3.0869     | 3.0869     |   0.0 | 11.47
Comm    | 0.70521    | 0.70521    | 0.70521    |   0.0 |  2.62
Output  | 0.084872   | 0.084872   | 0.084872   |   0.0 |  0.32
Modify  | 3.0076     | 3.0076     | 3.0076     |   0.0 | 11.17
Other   |            | 0.0976     |            |       |  0.36

Nlocal:           4320 ave        4320 max        4320 min
Histogram: 1 0 0 0 0 0 0 0 0 0
Nghost:          10550 ave       10550 max       10550 min
Histogram: 1 0 0 0 0 0 0 0 0 0
Neighs:         206583 ave      206583 max      206583 min
Histogram: 1 0 0 0 0 0 0 0 0 0

Total # of neighbors = 206583
Ave neighs/atom = 47.820139
Ave special neighs/atom = 12
Neighbor list builds = 421
Dangerous builds = 0

unfix 1

undump 1
unfix boxsizepressurerelaxation
uncompute clmsd
unfix clmsd

reset_timestep 0

dump 2 cl custom 1000 cl_equilibrium id mol type q x y z fx fy fz
dump_modify 2 sort id

fix boxsizepressureequilibrium all ave/time 1000 1 1000 v_lx v_ly v_lz v_px v_py v_pz file box_size-pressure_equilibrium mode scalar

#fix 2 all nve
#fix 2 all nvt temp 300.0 300.0 $(100.0*dt)
fix 2 all npt temp 300.0 300.0 $(100.0*dt) x 1.0 1.0 $(100.0*dt) z 1.0 1.0 $(100.0*dt)
fix 2 all npt temp 300.0 300.0 400 x 1.0 1.0 $(100.0*dt) z 1.0 1.0 $(100.0*dt)
fix 2 all npt temp 300.0 300.0 400 x 1.0 1.0 400 z 1.0 1.0 $(100.0*dt)
fix 2 all npt temp 300.0 300.0 400 x 1.0 1.0 400 z 1.0 1.0 400

timestep 12.0
thermo 1000
thermo_modify flush yes
thermo_style custom step temp epair emol etotal pxx pyy pzz
WARNING: New thermo_style command, previous thermo_modify settings will be lost (src/output.cpp:904)
run 1000000
Generated 0 of 3 mixed pair_coeff terms from geometric mixing rule
Hybrid pair style last /omp style hbond/dreiding/lj/angleoffset
Last active /omp style is improper_style harmonic/omp
WARNING: Inconsistent image flags (src/domain.cpp:1051)
Per MPI rank memory allocation (min/avg/max) = 20.24 | 20.24 | 20.24 Mbytes
   Step          Temp          E_pair         E_mol          TotEng          Pxx            Pyy            Pzz      
         0   292.59688     -25078.905      2290.9733     -19021.005      182.69413     -108.50545      836.56405    
      1000   295.48021     -25014.924      2428.1522     -18782.725      259.68491      142.99279      31.766733    
      2000   298.40472     -25031.813      2561.0242     -18629.091     -86.878055      148.46918      40.110984    
      3000   303.60937     -25031.359      2420.5115     -18702.145      92.166175     -94.879093     -84.193484    
      4000   301.71434     -24990.841      2403.3703     -18703.165     -373.17505     -101.61701      1425.7892    
      5000   304.18466     -25028.436      2424.566      -18687.761      229.75864      247.33421     -511.19255    
      6000   291.27921     -25084.757      2394.8776     -18939.916      207.79687      190.13726      645.2966     
      7000   303.28188     -25031.752      2533.2337     -18594.032     -89.109366     -147.11397      621.48006    
      8000   295.39457     -25087.218      2463.4117     -18820.861     -70.338494      115.60994      437.79111    
      9000   299.78521     -25030.753      2353.962      -18817.321     -291.06099     -92.334298     -1106.601     
     10000   300.36158     -25100.096      2436.918      -18796.288      80.045993      69.706163      172.17978    
     11000   294.75872     -25093.433      2414.6758     -18883.998      82.365915      221.54652     -805.15372    
     12000   301.83325     -25074.011      2496.3475     -18691.826     -17.371283      29.909433      418.49181    
     13000   299.28406     -25020.617      2406.3578     -18761.24       237.79156      277.42197     -369.07849    
     14000   299.39856     -25010.245      2432.6951     -18723.058     -5.1979739      89.253594      44.324402    
     15000   303.43117     -25099          2467.8751     -18724.716      279.34504      333.59975      328.70741    
     16000   296.03854     -25038.787      2450.7375     -18776.814     -180.74843     -218.18673      877.28813    
     17000   296.88618     -25039.461      2414.3883     -18802.925     -9.5137876      166.15381      734.65588    
     18000   301.94436     -25069.235      2396.3934     -18785.574     -283.06861     -204.36485      6.9001993    
     19000   296.58515     -25075.072      2414.2156     -18842.584     -187.23511     -124.62358      1370.6784    
     20000   298.6395      -25005.964      2438.5715     -18722.672     -345.67825     -338.8792       1059.784     
     21000   303.02575     -25090.292      2443.626      -18745.476     -332.66367     -429.53224      841.94176    
     22000   296.76559     -25060.408      2437.3298     -18802.483     -43.936221      200.61702     -722.35836    
     23000   301.35459     -25023.349      2427.3073     -18716.367      39.146752      50.017073     -1408.7422    
     24000   301.6638      -25024.551      2403.1234     -18737.772     -96.750682     -361.23009     -529.62387    
     25000   299.43942     -25021.372      2418.7408     -18747.612     -8.7558124      69.204957     -601.19641    
     26000   300.09824     -25023.458      2444.0861     -18715.871      196.24695      203.51942     -284.0316     
     27000   301.27284     -25077.544      2505.5042     -18693.418      109.05192     -27.362709     -118.52363    
     28000   304.80577     -25085.821      2434.6563     -18727.06       117.79249      1.0187398      120.97993    
     29000   300.95203     -25024.68       2389.0772     -18761.111      56.780846      15.631725     -989.48522    
     30000   298.14052     -25038.83       2424.4787     -18776.055      109.65442      102.30351      457.23168    
     31000   298.21903     -25083.939      2374.1744     -18870.458     -125.51624     -183.45155     -394.55594    
     32000   296.28797     -25053.228      2497.9815     -18740.8        34.980867      22.344603      324.63933    
     33000   302.69062     -25077.597      2488.998      -18691.724     -197.20526     -221.2728       1729.9623    
     34000   299.01261     -25040.925      2377.4846     -18813.916     -50.282783     -105.61775      178.78309    
     35000   302.84088     -25061.755      2530.7744     -18632.172      55.62855       5.7768904     -433.51094    
     36000   302.0685      -25002.344      2413.9526     -18699.525     -270.20119     -65.765954      70.442324    
     37000   305.7788      -25013.93       2392.6874     -18684.61      -227.05936     -189.98517      0.75386346   
     38000   299.87557     -25030.409      2433.5851     -18736.19      -82.800959     -78.552701     -678.57242    
     39000   297.76346     -25021.12       2417.1874     -18770.49       229.10928      124.62881      260.60809    
     40000   304.97158     -25058.68       2408.1776     -18724.262      50.440746     -160.60895      490.98449    
     41000   300.76625     -25033.109      2410.1391     -18750.869      35.635763      84.969935     -112.70896    
     42000   296.13452     -25046.011      2453.0581     -18780.482     -346.14727     -12.122139     -845.575      
     43000   300.46287     -25000.519      2426.5215     -18705.803      467.07093      475.00232     -174.38516    
     44000   297.87195     -25065.335      2414.9303     -18815.566      387.36227      469.86667      184.43884    
     45000   299.26083     -25017.902      2360.1327     -18805.05      -357.4524      -138.67454     -959.58461    
     46000   303.09125     -25058.751      2479.2218     -18677.496     -179.06835     -101.21379     -772.614      
     47000   297.91107     -25067.94       2482.989      -18749.608     -404.60072     -157.09579      1172.5977    
     48000   300.90713     -24970.126      2463.3941     -18632.817     -517.5791      -468.49055     -775.62562    
     49000   300.6442      -25032.675      2367.1782     -18794.968      93.763795      75.666345     -703.60281    
     50000   298.392       -25012.178      2470.0809     -18700.563     -365.77533     -240.9374       509.60219    
     51000   299.56455     -25076.283      2426.9108     -18792.743      140.81913      93.063912      159.60588    
     52000   301.32709     -24997.234      2396.5222     -18721.391      5.1566721      79.615819     -501.64135    
     53000   304.47332     -25039.669      2491.9773     -18627.866     -86.924293     -141.57036      221.54915    
     54000   299.81959     -25045.262      2443.1479     -18742.201     -184.59721     -95.823531     -787.80341    
     55000   298.30291     -25043.6        2522.0628     -18681.15      -82.51253       48.87676      -1182.3434    
     56000   304.68058     -25055.871      2431.5331     -18701.844      121.99053      201.06063      490.51295    
     57000   297.72544     -25045.853      2404.0087     -18808.892      280.59308      340.66221     -469.23179    
     58000   303.02696     -24996.141      2450.8984     -18644.038     -80.367503     -20.749048     -292.51007    
     59000   295.77563     -25053.769      2433.6835     -18812.235     -49.410389      131.31952     -674.22688    
     60000   299.86951     -25012.584      2451.981      -18700.048     -252.3533      -127.97523     -10.043726    
     61000   296.39528     -25034.58       2395.8478     -18822.905     -246.89594     -102.85383      285.62686    
     62000   297.48        -25013.387      2439.2841     -18744.31      -156.35187     -58.256619     -279.29438    
     63000   299.85443     -25074.891      2413.168      -18801.362      139.51423      164.88147      674.09642    
     64000   294.93172     -25051.579      2397.4059     -18857.187      286.55862      233.81266      187.87831    
     65000   299.1281      -25042.522      2462.8546     -18728.657      518.59349      681.9896       532.37425    
     66000   296.54003     -25032.777      2383.1191     -18831.966      349.4531       289.08491      264.25441    
     67000   289.25839     -25046.673      2401.5056     -18921.22      -95.160822      142.796        247.08778    
     68000   296.26129     -25044.475      2454.5571     -18775.815      133.26954      295.49303      79.986025    
     69000   296.08554     -25038.369      2381.4832     -18845.045      208.86475      97.057559     -441.25488    
     70000   298.58887     -25043.078      2478.9494     -18720.06      -200.60032     -285.78605      531.80147    
     71000   297.20427     -25051.484      2418.5782     -18806.663     -87.739389      5.3063874     -7.4092701    
     72000   303.99537     -25018.021      2421.8373     -18682.511     -149.15402     -194.44678      87.704766    
     73000   297.37675     -25078.984      2417.3502     -18833.17       354.0348       323.53149      1456.6129    
     74000   308.13544     -25079.16       2421.661      -18690.527     -116.16363     -145.19545      939.98797    
     75000   294.16596     -25074.491      2341.8057     -18945.557      383.13316      369.89529      145.05702    
     76000   294.99984     -25016.05       2465.9261     -18752.261     -349.12175     -174.38805     -608.61626    
     77000   300.77015     -25070.755      2471.4534     -18727.151     -20.049932     -76.809286      530.7091     
     78000   300.07767     -25006.622      2363.7746     -18779.612     -108.07687      186.20151      246.55959    
     79000   293.98842     -25080.782      2415.2854     -18880.654      175.29145      90.38495      -701.40902    
     80000   294.663       -25049.534      2412.0191     -18843.989      405.39592      391.98416      926.06325    
     81000   296.11475     -25044.68       2410.7277     -18821.736     -110.63505     -38.648782     -475.58932    
     82000   299.48866     -25105.144      2471.2366     -18778.255     -547.11152     -505.19011      264.30145    
     83000   296.7489      -24980.761      2465.8675     -18694.513      400.39693      362.5035       261.66206    
     84000   300.63192     -25004.637      2431.8089     -18702.457     -822.19398     -717.1828      -277.53939    
     85000   300.17736     -25037.393      2438.8929     -18733.982      264.97746      196.88889     -388.32793    
     86000   294.61415     -25068.36       2419.0099     -18856.453      41.690285      123.17956      929.2078     
     87000   305.60671     -25028.796      2452.7258     -18641.653      90.732437      137.90307     -48.028021    
     88000   299.23444     -25065.45       2377.1083     -18835.962      305.63559      302.90445      406.85918    
     89000   301.83105     -25067.025      2416.8402     -18764.376     -118.02797     -137.67124     -805.11032    
     90000   296.50348     -25022.057      2379.5296     -18825.307     -177.21544     -55.386166      816.46648    
     91000   300.11263     -25065.223      2470.9717     -18730.566      40.08843       59.497655      76.441782    
     92000   303.52193     -25052.726      2411.3274     -18733.821      8.8705129      48.134805     -51.396827    
     93000   304.8735      -25091.65       2409.0236     -18757.649     -5.5564519      137.79551     -527.06305    
     94000   298.02792     -25078.946      2448.7594     -18793.34      -58.119373     -16.419593      759.60592    
     95000   299.41726     -25054.733      2360.5299     -18839.47       358.79509      297.45391     -38.95086     
     96000   295.90084     -25024.328      2389.7191     -18825.146     -104.46922     -201.46449     -702.4858     
     97000   310.29561     -25022.842      2451.243      -18576.817     -269.75055     -249.97982     -571.07264    
     98000   300.57207     -25014.373      2367.9713     -18776.801      362.81237      520.2896       323.4615     
     99000   305.80157     -25123.646      2427.4431     -18759.277      378.72451      379.76931      1203.3297    
    100000   294.304       -25048.899      2450.2175     -18809.777      362.03858      508.6018      -494.00853    
    101000   304.16103     -25122.011      2380.1927     -18826.013     -40.595649     -19.269111      537.2004     
    102000   291.44119     -25073.521      2468.1719     -18853.3        248.87474      117.72354      736.99476    
    103000   303.05109     -25034.215      2447.8442     -18684.856      364.38705      427.08879     -506.49071    
    104000   300.23911     -25048.031      2410.0352     -18772.682      57.332463     -15.532522      637.76622    
    105000   301.06704     -24988.046      2447.6489     -18664.424     -412.99096     -270.90293      662.198      
    106000   301.46152     -24999.748      2433.7826     -18684.914     -54.157599     -48.018787      0.68627937   
    107000   304.8182      -25051.562      2372.5901     -18754.706     -229.7088      -398.0414      -187.54753    
    108000   298.0211      -25015.821      2388.4556     -18790.607      489.41326      461.04065     -124.70123    
    109000   291.60106     -25015.897      2406.0988     -18855.692     -128.7995      -182.98017      236.04605    
    110000   297.78974     -25024.136      2412.2748     -18778.081     -669.60802     -484.24088      712.14527    
    111000   301.70721     -25004.193      2467.2734     -18652.705     -80.952881      39.10233      -362.83292    
    112000   300.4959      -25032.52       2408.3192     -18755.581      332.44531      353.63334      197.88915    
    113000   300.002       -25030.558      2429.6897     -18738.607     -360.03575     -320.80353     -1465.0692    
    114000   301.869       -25078.43       2410.8462     -18781.287     -137.59669     -47.287953     -489.70716    
    115000   298.39387     -25016.226      2479.3352     -18695.333      134.53801      29.591152     -496.08214    
    116000   299.3689      -25101.599      2443.9782     -18803.51       276.78784      212.3736      -329.36928    
    117000   305.48287     -25051.524      2518.1432     -18600.558      101.13595      136.13818      262.62403    
    118000   305.45458     -24990.18       2402.9429     -18654.779      327.96985      145.58754     -367.51519    
    119000   297.4098      -25095.137      2418.3058     -18847.942     -117.83184     -119.91217     -108.36325    
    120000   305.26236     -25081.071      2356.7696     -18794.318      226.84168      89.272737      440.25471    
    121000   292.75423     -25038.678      2404.8158     -18864.909     -302.14376     -186.09495     -506.30266    
    122000   305.72778     -25117.16       2374.4145     -18806.77       96.256077     -99.346612      235.28399    
    123000   300.19404     -25053.668      2397.8846     -18791.049     -194.05203     -158.73022     -932.30512    
    124000   300.57316     -25079.391      2421.9205     -18787.856      305.34975      203.05726     -205.6588     
    125000   304.15951     -25069.731      2438.098      -18715.848     -417.22457     -322.44206      255.36124    
    126000   303.65969     -25046.067      2394.5133     -18742.203     -10.449969     -29.416704     -200.3216     
    127000   297.4236      -25070.75       2436.9385     -18804.745     -231.63965     -185.75401      102.0475     
    128000   300.51103     -25107.845      2408.05       -18830.98       269.20677      180.61788     -31.878179    
    129000   299.35423     -25048.304      2409.5587     -18784.824     -47.678461     -212.9547      -27.125377    
    130000   305.28441     -25061.54       2436.314      -18694.959     -13.884502     -12.936546      201.23247    
    131000   299.67737     -25091.9        2343.6976     -18890.12       566.0049       540.0214       996.84403    
    132000   296.27699     -25016.815      2431.331      -18771.179     -36.989353      164.30152      667.14245    
    133000   296.82698     -25046.966      2372.7867     -18852.793      32.799802      97.532113      1681.1226    
    134000   301.66117     -25005.936      2408.5451     -18713.769     -55.753536     -76.961114     -439.75172    
    135000   302.3473      -25036.791      2411.5248     -18732.811      202.47366      211.7524       499.15357    
    136000   300.22845     -25019.332      2457.0665     -18697.088     -488.68691     -403.3122      -1011.6585    
    137000   304.07052     -25010.627      2473.7999     -18622.187      114.84427      6.3560644     -117.36592    
    138000   296.38343     -25034.177      2396.888      -18821.614     -194.17163     -27.416903     -495.81622    
    139000   298.33025     -25082.093      2423.102      -18818.252     -454.64464     -327.53364     -532.85033    
    140000   301.38875     -24941.999      2490.2207     -18571.664     -103.14284     -94.405986     -641.37439    
    141000   299.59526     -25075.276      2478.4271     -18739.824     -172.94566     -106.48462      859.00076    
    142000   302.92009     -25065.995      2439.6377     -18726.528      260.56853      189.09263     -184.91179    
    143000   299.59294     -25045.61       2442.592      -18746.023      412.27612      260.10355     -169.48434    
    144000   295.81827     -25020.359      2371.7352     -18840.224      165.35418      139.89764     -336.07981    
    145000   302.64909     -25082.481      2505.6811     -18680.46       3.9439081     -34.993515      579.13264    
    146000   297.83588     -25086.472      2462.1399     -18789.958     -23.533302      255.17188     -645.58417    
    147000   301.20485     -24967.559      2405.6224     -18684.19      -23.309476      158.24392     -654.57648    
    148000   301.55684     -25030.585      2412.5369     -18735.77       225.82694      93.514804     -520.80007    
    149000   298.6178      -25019.831      2441.5506     -18733.839     -67.527943     -104.99163     -29.063049    
    150000   300.90921     -25017.084      2399.7122     -18743.43       44.230893      177.5495       274.66037    
    151000   296.80423     -25021.581      2385.0943     -18815.394     -155.67564      71.061191     -1051.8837    
    152000   293.38944     -24998.174      2352.7484     -18868.295     -327.00752     -209.1035       245.46436    
    153000   306.52881     -25052.359      2390.2438     -18715.827     -92.339666     -286.13214      102.55912    
    154000   295.43228     -24977.736      2442.0071     -18732.299      144.04833      106.97805     -635.75555    
    155000   301.69913     -25026.707      2430.9461     -18711.65      -132.16034     -24.739682      494.37063    
    156000   301.05648     -25066.179      2393.1181     -18797.224     -42.328423     -21.052509      525.88947    
    157000   300.28007     -25060.014      2442.9175     -18751.255     -59.447882     -52.782401     -629.85767    
    158000   298.23894     -25069.06       2406.5693     -18822.927      32.151144      70.560151     -353.23229    
    159000   305.87709     -25073.26       2454.8238     -18680.538      170.86292      97.771488      578.30984    
    160000   295.50479     -24984.662      2407.4426     -18772.856     -587.02407     -590.83266     -794.62846    
    161000   300.56957     -25065.344      2478.4056     -18717.37       47.510301     -35.091258     -940.58492    
    162000   296.7368      -25055.813      2386.8152     -18848.773     -288.99133     -310.12446     -1365.8322    
    163000   300.04855     -25013.171      2398.6927     -18751.618     -189.3646       42.271492      440.5207     
    164000   295.36139     -25035.84       2390.7649     -18842.557     -413.97744     -246.91002     -859.80472    
    165000   301.84198     -25102.347      2424.483      -18791.915      248.44373      239.11681      604.32409    
    166000   304.70022     -25051.032      2430.7178     -18697.567      240.73808      69.054313     -301.60469    
    167000   302.08088     -25050.763      2483.5472     -18678.191     -197.18034     -138.65892     -1316.7198    
    168000   294.18034     -25034.345      2376.8157     -18870.216      178.79325      254.167       -125.32416    
    169000   298.47694     -25108.78       2515.383      -18750.769      213.20102      215.90917     -208.31431    
    170000   297.14817     -25020.463      2397.8537     -18797.088      13.713727     -27.134785      941.13379    
    171000   299.31234     -25093.126      2405.6692     -18834.074     -109.51345     -125.2679      -213.86195    
    172000   305.06274     -25092.756      2489.2893     -18676.053      318.72668      213.85492     -205.62868    
    173000   304.79093     -25044.472      2417.8587     -18702.699     -197.99058     -89.335177     -101.83985    
    174000   303.44512     -25063.428      2474.1885     -18682.651      207.01471      247.36508     -728.20673    
    175000   298.04885     -25080.846      2392.198      -18851.531     -196.20708     -227.33065      535.04331    
    176000   298.76924     -25025.379      2407.4581     -18771.53      -21.308232      57.950967     -1715.2805    
    177000   304.32771     -25078.384      2456.7164     -18703.717     -286.87411     -275.18779     -248.71699    
    178000   302.90567     -25057.676      2373.8974     -18784.135     -294.0034      -247.75874     -693.26699    
    179000   304.53379     -25014.354      2384.3937     -18709.356      27.488045      173.20897      542.63687    
    180000   297.15971     -25060.093      2422.8554     -18811.568      11.050259     -79.470974     -339.63225    
    181000   300.48821     -25020.554      2453.5663     -18698.467      187.81001      44.341624      694.52674    
    182000   300.2661      -25068.174      2413.7622     -18788.75       308.98909      120.80456     -944.85189    
    183000   298.42518     -24968.564      2338.2648     -18788.338     -359.54901     -245.49723     -66.970903    
    184000   301.14248     -25061.727      2421.5185     -18763.264      447.33869      346.23304     -116.83004    
    185000   301.48707     -25046.179      2379.7502     -18785.048      41.22292       176.38738      728.84048    
    186000   298.90698     -24983.059      2392.9948     -18741.9        137.85288      96.747276     -719.70404    
    187000   301.55292     -25065.799      2361.6682     -18821.903     -209.12607     -250.21705      923.58048    
    188000   297.55251     -25094.06       2460.7386     -18802.595      72.701639     -4.9170364      324.35911    
    189000   303.25721     -25129.518      2441.3945     -18783.955      139.52345      168.56595      51.352944    
    190000   304.36007     -25029.882      2491.124      -18620.39      -111.30541     -230.32189     -527.7549     
    191000   298.75343     -25126.465      2413.773      -18866.505      158.99367     -9.7398206     -173.67526    
    192000   296.87389     -25037.042      2471.4779     -18743.574      183.39254      290.83227      608.70514    
    193000   299.35657     -25039.794      2436.1152     -18749.727     -636.34631     -541.93869     -330.29939    
    194000   307.73794     -25038.511      2524.802      -18551.854     -77.834861     -33.210179     -225.74733    
    195000   298.82548     -25090.256      2464.7687     -18778.373      326.28438      341.76175      140.90984    
    196000   300.67493     -25058.768      2431.9819     -18755.862      464.87563      296.43185     -296.75234    
    197000   299.07301     -25011.03       2417.6164     -18743.112      141.21332      146.177       -609.00793    
    198000   301.11047     -25045.015      2460.1721     -18708.311     -210.87992     -321.06986      131.00525    
    199000   305.96957     -25035.118      2400.745      -18695.284      2.233686       127.70085     -1461.1514    
    200000   301.05632     -25029.907      2392.5864     -18761.486     -266.88778     -219.96212     -264.89716    
    201000   305.60286     -25038.806      2436.3292     -18668.109      69.468105     -127.05949     -807.57091    
    202000   299.29036     -25055.185      2499.5254     -18702.56       9.436978       78.423602      972.59636    
    203000   296.70397     -25073.863      2387.1475     -18866.914     -243.80081     -223.33354      167.29324    
    204000   297.37606     -25052.394      2416.8211     -18807.119     -189.81953     -33.307248      82.505507    
    205000   295.77215     -25082.088      2444.1501     -18830.132      224.39164      130.35172     -446.17471    
    206000   303.31557     -25021.819      2423.8736     -18693.025     -342.92372     -312.85801     -397.61369    
    207000   294.87014     -25028.429      2424.189      -18808.046      375.79282      276.4902       848.44831    
    208000   302.67283     -24988.319      2488.8795     -18602.793      272.78546      270.41408     -689.28397    
    209000   300.92493     -25042.97       2489.6766     -18679.15       520.71651      416.1896       921.60178    
    210000   299.86906     -25000.221      2437.5078     -18702.163     -137.12654     -113.90444     -1437.282     
    211000   297.96194     -25048.253      2428.1627     -18784.093     -133.44561     -33.319633     -232.45595    
    212000   301.35454     -25049.172      2435.5771     -18733.921      174.15392      202.76746     -131.73085    
    213000   296.85265     -25059.435      2381.2735     -18856.445     -96.718554     -60.702373      535.12519    
    214000   299.74769     -25077.724      2389.138      -18829.599      32.521481      19.501913     -51.070964    
    215000   298.23263     -25084.204      2464.6889     -18780.033     -202.74064     -92.382957     -897.4416     
    216000   301.06047     -25061.695      2425.0103     -18760.797      60.800468      167.83584      707.70462    
    217000   301.02529     -25051.066      2445.5507     -18730.08       349.55534      194.97295     -497.58973    
    218000   296.21396     -25038.749      2359.5148     -18865.741      34.826528      123.02028      608.2152     
    219000   295.63023     -25054.507      2377.8674     -18870.661      432.06639      627.79693      164.22383    
    220000   297.21355     -25073.74       2452.0649     -18795.312      193.95781      280.38134      113.19384    
    221000   296.18196     -25081.578      2472.7631     -18795.734      56.642149     -70.017194     -247.96857    
    222000   303.19529     -25061.685      2400.3968     -18757.916      205.01398      146.75419     -460.76859    
    223000   296.34609     -25013.186      2377.1454     -18820.846      130.81118      216.58043      362.77401    
    224000   301.38943     -24969.384      2436.6931     -18652.567      420.23965      344.15592     -600.32339    
    225000   295.23666     -25030.593      2434.8485     -18794.833     -91.005402      1.1571657     -24.012578    
    226000   297.6258      -25021.618      2455.7809     -18734.167      34.790573      190.79153     -963.66721    
    227000   299.99569     -25063.886      2407.0556     -18794.65      -167.20912     -18.34289      -121.77874    
    228000   291.8802      -24989.851      2380.5809     -18851.569     -199.91146     -56.997664     -574.02859    
    229000   298.43631     -25007.333      2438.516      -18726.713     -456.66666     -341.87659      197.38103    
    230000   302.69712     -25079.655      2475.3316     -18707.365      103.07765      149.90375      520.84909    
    231000   298.89669     -25096.778      2392.8782     -18855.868      44.697556     -85.349823      597.82255    
    232000   302.10367     -24981.356      2467.0508     -18624.987     -817.79199     -491.09334     -403.81438    
    233000   297.87814     -25042.117      2408.6313     -18798.568     -226.54441     -153.39586      496.8881     
    234000   301.82274     -25080.89       2423.3533     -18771.834      207.17202      245.60599      594.00909    
    235000   301.3886      -25069.856      2415.7948     -18773.949     -256.19286     -249.26037      717.86069    
    236000   298.16303     -25055.289      2410.7636     -18805.939      249.81711      116.62648      149.11851    
    237000   298.43714     -25084.245      2455.1387     -18786.991      518.98618      531.74676      695.40687    
    238000   293.73865     -25070.207      2395.442      -18893.139     -25.206369      38.170205      79.254861    
    239000   303.39251     -25042.516      2388.8798     -18747.725      171.11688      91.746091      646.14252    
    240000   296.37174     -25070.191      2463.1759     -18791.49      -8.0110074      51.854314      435.75012    
    241000   293.09638     -25114.665      2483.1203     -18858.188      222.89985      343.88803      40.528094    
    242000   290.76508     -25058.778      2437.3103     -18878.123      1.3385674      262.80454      630.01256    
    243000   302.1945      -25098.083      2403.4147     -18804.181      211.55789      222.71566     -67.613113    
    244000   294.19849     -25109.493      2473.9081     -18848.038      99.238534      254.65413     -1119.718     
    245000   299.32974     -25126.327      2423.3038     -18849.417      2.7621278      148.48684      701.93167    
    246000   299.77757     -25073.785      2380.213      -18834.2       -434.49456     -359.69062      436.40532    
    247000   302.70687     -25087.092      2394.9032     -18795.105      174.52594      263.24472      763.71319    
    248000   303.12231     -25062.138      2373.73       -18785.976      12.279225      191.82597      201.93711    
    249000   299.88783     -25027.786      2350.2594     -18816.735     -555.20806     -356.09931     -482.96683    
    250000   300.54151     -25072.28       2413.7725     -18789.3       -523.2831      -450.60297      921.00243    
    251000   295.00378     -25067.179      2405.8558     -18863.41       315.22034      342.04002     -567.42765    
    252000   303.84719     -25138.563      2411.5834     -18815.215      146.17157      248.81062     -313.70498    
    253000   304.54297     -25020.882      2385.1822     -18714.977      94.2782        58.486652     -481.88773    
    254000   302.15479     -25041.379      2385.2908     -18766.112      246.13567      226.9991       223.36488    
    255000   297.20682     -25066.214      2463.0168     -18776.921      264.54959      450.9386      -36.52061     
    256000   298.89981     -25129.102      2387.7664     -18893.264      88.383013      246.05836      262.49219    
    257000   303.57787     -25105.622      2492.8248     -18704.5        135.06287      222.83352     -84.613641    
    258000   296.6372      -25048.722      2446.4213     -18783.359      78.496115      111.86398      622.56438    
    259000   298.4882      -25047.157      2453.8712     -18750.513      220.09936      428.55471      211.45063    
    260000   300.10938     -25047.035      2451.7921     -18731.599      444.90237      479.57622      995.04038    
    261000   301.99893     -25108.491      2381.7969     -18838.724     -35.317242      159.1472      -333.40882    
    262000   295.14593     -25090.376      2380.7587     -18909.873      385.00607      468.04884      669.10801    
    263000   298.28094     -25046.289      2474.0261     -18732.159     -562.9567      -316.53529     -470.43269    
    264000   295.93115     -25065.717      2414.1287     -18841.735     -193.13633      26.591045     -428.48689    
    265000   304.17129     -25085.667      2371.517      -18798.213     -71.418896     -18.819397      3.6049745    
    266000   296.20693     -25062.77       2467.679      -18781.688      544.99479      570.97593      717.59934    
    267000   300.32751     -25036.669      2491.8228     -18678.394     -238.23936     -11.389479     -188.45846    
    268000   302.15602     -25037.568      2462.4012     -18685.174      236.52456      264.34733      1282.5372    
    269000   303.78154     -25056.009      2422.5045     -18722.585      171.98974      259.03675      705.20956    
    270000   300.77594     -25125.652      2412.0449     -18841.382      246.20421      404.17029      135.87279    
    271000   299.12672     -25138.216      2364.1391     -18923.084      234.31637      177.03303      305.20624    
    272000   299.59801     -25093.859      2399.5985     -18837.2       -189.2462       0.094116771   -236.3393     
    273000   297.28978     -25038.815      2438.4765     -18772.994     -277.79056     -265.25923     -484.97247    
    274000   303.66736     -25099.046      2372.4489     -18817.148     -73.352531      110.14625     -581.83719    
    275000   297.18974     -25051.294      2369.2355     -18856.002      93.652733      299.34052      852.76483    
    276000   306.17185     -25090.754      2350.5613     -18798.5        88.961148      285.53953      203.56924    
    277000   299.41266     -25034.154      2329.8861     -18849.594      93.683937      193.37765     -1063.1149    
    278000   302.47425     -25076.14       2366.5615     -18815.489     -444.84874     -238.71568     -503.78396    
    279000   297.33394     -25055.413      2417.8952     -18809.606      63.18554       67.152827     -1139.3303    
    280000   311.19788     -25097.773      2413.4854     -18677.889      717.99542      507.32902     -212.44217    
    281000   297.09457     -25075.765      2415.9464     -18834.988     -160.02905     -190.29357     -319.66044    
    282000   305.57701     -25092.74       2366.2429     -18792.463      59.998292      181.01633     -212.36197    
    283000   303.3948      -25074.281      2403.8026     -18764.538     -197.9588      -179.5175       233.01144    
    284000   297.39066     -25105.421      2419.4066     -18857.371      114.41569      174.50214      549.83735    
    285000   302.61754     -25108.483      2371.9048     -18840.644      7.0505685      151.55189      189.9877     
    286000   300.11165     -25071.801      2436.572      -18771.556      47.844156      112.08078      499.64755    
    287000   294.58595     -25135.169      2400.052      -18942.583      194.49011      325.03369     -1077.2568    
    288000   299.95521     -25097.074      2511.9584     -18723.457     -102.70472      102.68149      1045.1354    
    289000   293.90936     -25078.703      2417.3583     -18877.521     -12.93987       100.63085     -1137.3149    
    290000   301.78753     -25093.873      2419.661      -18788.964      56.206656      162.35125      18.778145    
    291000   305.75472     -25112.279      2416.8801     -18759.076     -58.320743      101.11026      576.10587    
    292000   299.89865     -25077.994      2454.8176     -18762.246      296.2894       191.02893      521.88952    
    293000   303.41173     -25101.821      2426.2644     -18769.398     -93.579597      130.07148      597.0558     
    294000   305.53704     -25089.513      2456.7016     -18699.291      606.41708      612.44286     -439.16642    
    295000   300.86939     -25059.879      2398.8665     -18787.584      311.85487      387.24219     -200.40118    
    296000   301.37282     -25078.372      2448.3757     -18750.087     -111.84517     -22.780959     -421.27828    
    297000   303.28323     -25087.405      2348.8823     -18834.019      160.38835      172.3498      -500.97031    
    298000   301.03823     -25068.524      2422.0123     -18770.91       373.78726      449.79438     -12.558048    
    299000   301.25599     -25088.949      2435.4756     -18775.068      70.280782      88.153892     -87.539038    
    300000   303.37994     -25038.732      2464.4511     -18668.531     -215.07331     -36.029738      508.74638    
    301000   295.56213     -25111.197      2404.153      -18901.942     -202.0634      -76.333379      255.65584    
    302000   300.51659     -25069.844      2418.9739     -18781.984     -108.77452      215.89008     -2044.8438    
    303000   306.7158      -25053.363      2458.263      -18646.404      288.84108      344.86461      128.67136    
    304000   296.4715      -25096.484      2436.2899     -18843.385     -10.539138      163.61749      958.57473    
    305000   304.85464     -25047.61       2415.4366     -18707.438     -468.18858     -87.707087     -1266.619     
    306000   296.75804     -25124.185      2435.9917     -18867.695      169.25618      312.493       -111.87175    
    307000   305.0509      -25079.481      2496.253      -18655.966      178.1532       396.86123      439.81693    
    308000   300.74508     -25136.792      2402.2103     -18862.754      247.88012      455.74101      1007.133     
    309000   300.542       -25088.22       2440.5855     -18778.421      70.532261     -73.990334     -630.30787    
    310000   300.93648     -25096.061      2404.1464     -18817.623     -306.82659     -48.879234     -416.99984    
    311000   302.23        -25064.687      2367.7126     -18806.03      -71.994424      17.315923     -160.65906    
    312000   298.69536     -25127.003      2424.6987     -18856.865      65.523709      96.233617     -1355.5172    
    313000   300.31257     -25139.915      2506.2042     -18767.451      223.83156      222.32094      552.1075     
    314000   301.50542     -25073.825      2409.1649     -18783.044     -30.425264     -15.545427      278.28282    
    315000   292.76811     -25105.021      2464.3843     -18871.506     -222.51228     -126.47762     -741.67244    
    316000   294.29252     -25076.471      2449.5842     -18838.13      -268.19029     -44.721255     -344.75939    
    317000   303.2485      -25045.536      2382.1013     -18759.377      7.909576       260.86855     -534.64453    
    318000   300.16623     -25040.743      2366.4314     -18809.936      8.6331206      119.39374      165.38564    
    319000   301.5558      -25146.42       2445.8875     -18818.267     -143.9654       210.77686      280.66453    
    320000   300.39181     -25056.329      2430.0915     -18758.958      202.16429      178.35443     -226.83883    
    321000   296.99048     -25094.971      2451.0157     -18820.465      6.6097732      28.612366      665.19653    
    322000   303.03965     -25115.801      2436.3512     -18778.081     -126.44269      35.340546      243.91814    
    323000   295.62731     -25077.716      2396.2332     -18875.542     -131.51195     -79.440563     -170.28154    
    324000   298.67501     -25047.34       2433.9319     -18768.23       106.62876      310.31085     -325.42748    
    325000   303.43563     -25086.716      2420.1551     -18760.095      38.638281      135.67186     -295.69034    
    326000   300.30413     -25073.07       2412.4054     -18794.514     -47.663919      37.641116     -613.55521    
    327000   303.36952     -25072.248      2423.6751     -18742.957     -195.31946      110.54067      1153.0374    
    328000   301.1774      -25117.098      2397.7436     -18841.961     -76.699346      85.949093     -497.60508    
    329000   300.50588     -25054.279      2352.6031     -18832.928      335.63781      502.56604     -204.62741    
    330000   303.49049     -25079.065      2416.5792     -18755.313     -228.72755     -21.92143      -714.78357    
    331000   305.75904     -25104.835      2398.1491     -18770.308     -268.69134     -118.35446      60.071197    
    332000   295.72084     -25070.423      2423.7974     -18839.481      69.119217      346.32556     -1437.3984    
    333000   301.34185     -25123.22       2401.7794     -18841.93       65.857732      228.71871     -294.85332    
    334000   298.34247     -25086.463      2375.3135     -18870.253      154.03511      304.05051     -687.13183    
    335000   302.50339     -25075.249      2387.1672     -18793.617      551.93059      607.38908     -793.98328    
    336000   305.48707     -25081.359      2406.6383     -18741.844      128.74378      177.97792      205.65306    
    337000   295.39647     -25071.6        2375.8726     -18892.758     -177.11789     -165.92253      757.71518    
    338000   307.48634     -25017.577      2443.6412     -18615.32      -194.04841     -145.04239      1239.3555    
    339000   303.76279     -24998.459      2446.3237     -18641.457     -136.4017      -45.280885     -742.01252    
    340000   305.21483     -25088.107      2425.3314     -18733.404     -119.61973      2.0838182      41.716298    
    341000   295.91256     -25083.099      2365.6935     -18907.792     -248.60853     -47.461341     -555.47061    
    342000   300.72401     -25109.884      2388.7785     -18849.549      23.077118      55.745982      649.57221    
    343000   295.81457     -25036.337      2447.7618     -18780.223      70.512117      121.23276      805.73702    
    344000   302.9346      -25060.198      2398.725      -18761.457     -153.72156      39.726898     -192.18347    
    345000   293.81993     -25042.595      2408.4176     -18851.505     -258.83974     -166.00034      163.76721    
    346000   296.16803     -25117.473      2400.1033     -18904.467     -93.623254      214.02986      99.731047    
    347000   297.06981     -25125.504      2432.8002     -18868.192     -5.8842839     -4.9630552     -1463.8507    
    348000   302.19968     -25107.398      2423.9226     -18792.921      656.99759      661.52878      110.32244    
    349000   301.07249     -25063.209      2404.9201     -18782.246     -150.07868      13.594024      751.16195    
    350000   297.50541     -25026.089      2356.5226     -18839.446     -377.31263     -226.81866     -1401.2744    
    351000   304.90828     -25052.221      2378.7498     -18748.046     -45.804927      154.89209     -775.617      
    352000   298.33712     -25116.279      2416.0681     -18859.384      264.63271      219.33793      1352.8959    
    353000   305.2712      -25071.637      2397.4184     -18744.121     -269.66987     -127.32267     -243.43517    
    354000   300.94992     -25074.082      2432.9844     -18766.633      229.68781      389.38286      1335.3428    
    355000   302.19546     -25025.055      2373.3576     -18761.197      100.91911      251.14972      328.24469    
    356000   301.30893     -25040.491      2385.5294     -18775.875     -225.98313     -43.246469     -936.59125    
    357000   296.69708     -25000.371      2415.4652     -18765.192      321.49686      325.37854     -185.7023     
    358000   299.41363     -25099.802      2398.4495     -18846.665      359.219        596.7731       351.70995    
    359000   296.25048     -25081.669      2376.2956     -18891.41       305.30273      354.25403     -768.91893    
    360000   296.51612     -25095.556      2429.0486     -18849.123     -268.12948     -152.12502     -473.75162    
    361000   299.67775     -25116.038      2365.4499     -18892.501      139.92954      254.28934      175.0238     
    362000   299.37454     -25083.643      2383.0641     -18846.396      109.78876      390.27017     -71.76002     
    363000   301.51038     -25032.994      2459.9598     -18691.354      269.21844      261.77715      1045.4403    
    364000   297.2374      -25043.135      2418.4468     -18798.018     -402.01618     -145.27748     -1450.8616    
    365000   302.37676     -25085.34       2419.1699     -18773.336     -77.112352      7.0669994     -18.570616    
    366000   303.1315      -25079.708      2366.0049     -18811.152      263.67954      401.71446      522.1413     
    367000   294.22213     -25074.819      2392.3783     -18894.59       218.99232      235.3231       1023.0435    
    368000   295.02456     -25085.407      2381.3798     -18905.846     -290.28857     -20.100203     -346.21723    
    369000   303.22299     -25013.485      2379.3138     -18730.442     -93.760715     -257.3068      -1088.3159    
    370000   305.27131     -25079.628      2368.788      -18780.741      215.14374      276.32141      177.07639    
    371000   295.97125     -25059.056      2408.3116     -18840.376     -5.3685586      138.41259      116.6038     
    372000   300.29869     -25081.042      2418.7426     -18796.219      75.070931      304.21137     -1308.4689    
    373000   304.487       -25069.265      2409.4562     -18739.807     -253.18755     -117.48053      925.90785    
    374000   305.2386      -25096.537      2472.2653     -18694.594      563.8147       611.65908      762.8784     
    375000   298.26933     -25086.265      2411.8113     -18834.499      72.339187      229.72388     -100.14747    
    376000   303.06534     -25033.591      2378.8719     -18753.02      -219.40691      24.388198     -355.88031    
    377000   296.62476     -25109.089      2384.8413     -18905.465     -286.0648      -55.294572     -64.873929    
    378000   304.53693     -25050.564      2489.4135     -18640.506      108.98797      122.19609     -116.61213    
    379000   296.24793     -25093.88       2424.368      -18855.581     -298.80126     -242.8739       494.26019    
    380000   308.84047     -25066.853      2453.4823     -18637.322      165.17824      378.5586       461.2648     
    381000   311.82363     -25084.468      2408.3679     -18661.646      60.480647      140.76653     -659.94282    
    382000   300.58435     -25028.714      2414.6517     -18744.304      332.69082      362.20806      376.05023    
    383000   295.55321     -25070.762      2431.2344     -18834.54       429.21261      526.29055      955.3        
    384000   298.18606     -25082.813      2369.5707     -18874.359      30.654772      119.34268     -322.6199     
    385000   302.09271     -25074.346      2455.8997     -18729.269      167.76626      289.44423      540.60631    
    386000   304.26071     -25049.673      2429.4384     -18703.146      157.12299      220.24268     -127.95001    
    387000   298.33793     -25095.536      2440.9451     -18813.753      93.300703      257.92377      157.68819    
    388000   296.20945     -25044.841      2453.9118     -18777.494      417.84266      513.4974      -1200.2707    
    389000   299.39503     -25039.329      2409.8944     -18774.988     -117.99838     -19.4575        489.86611    
    390000   303.54634     -25064.272      2377.9544     -18778.426      96.245081      189.1518      -76.602021    
    391000   305.18548     -25049.868      2437.5983     -18683.276     -308.91637     -255.55629      856.74697    
    392000   306.6412      -25124.692      2394.1832     -18782.774     -136.56392      40.111064      237.59531    
    393000   294.74575     -25055.421      2441.7719     -18819.057     -321.5357       53.752189      273.62733    
    394000   302.86041     -25054.996      2372.1801     -18783.755      88.048592      226.0222      -554.40596    
    395000   296.25328     -25033.926      2383.3926     -18836.534     -172.51449     -184.97715     -617.54178    
    396000   300.14145     -24989.047      2396.9849     -18728.006      86.74376       434.75435      896.09839    
    397000   302.68985     -25058.226      2421.2728     -18740.089      159.80995      198.22613     -176.61574    
    398000   303.36911     -25066.387      2350.0941     -18810.683      218.98376      305.61235     -324.91271    
    399000   305.63506     -25035.069      2422.1546     -18678.133     -435.19738     -160.76989      1060.6691    
    400000   305.99202     -25082.373      2487.8669     -18655.128      524.08036      756.19367      656.45627    
    401000   295.11761     -25094.723      2400.0007     -18895.343      60.925001      135.73594      912.13632    
    402000   299.25759     -25034.056      2404.157      -18777.221     -298.7704       58.109289      285.01571    
    403000   305.65407     -25035.177      2410.8305     -18689.32      -170.59128     -25.853225     -555.40336    
    404000   292.90792     -25017.35       2435.889      -18810.53      -77.118816      13.839212      205.26896    
    405000   292.43706     -25107.203      2471.871      -18870.462     -368.6317      -247.73384      133.76137    
    406000   299.11737     -25057.58       2450.2904     -18756.417      222.74462      261.22914      477.97199    
    407000   296.02615     -25055.847      2480.9263     -18763.845     -49.257115      6.9578855     -523.2838     
    408000   298.16404     -25040.146      2402.3689     -18799.178     -287.2982      -11.36937      -591.12989    
    409000   297.72061     -25135.472      2413.5209     -18889.06      -16.709792      167.24434      1304.0978    
    410000   299.78819     -25119.346      2453.8505     -18805.987     -256.7169      -74.396908      861.81707    
    411000   298.37077     -25058.06       2459.7522     -18757.047      76.070177      286.27264      610.26283    
    412000   295.62697     -25127.057      2403.6271     -18917.493     -104.88987      150.33266     -407.97454    
    413000   298.5268      -25056.208      2397.7728     -18815.166     -199.04781      35.942438      752.67081    
    414000   308.7713      -25093.095      2480.6719     -18637.265      158.4722       67.142262      24.497635    
    415000   302.79677     -25073.655      2400.597      -18774.816      76.704037      264.76956     -124.97613    
    416000   303.17722     -25047.492      2450.1027     -18694.25       253.41023      349.58421      161.32203    
    417000   305.29923     -25070.168      2399.7008     -18740.009     -57.643572      156.40541     -790.11109    
    418000   304.70069     -25002.529      2413.4997     -18666.276     -248.1506       226.78609      686.81112    
    419000   297.67159     -25068.023      2396.8727     -18838.891      220.31462      302.91191     -151.46442    
    420000   299.91883     -25081.014      2374.997      -18844.827      7.0805815      97.64993      -248.34522    
    421000   295.10254     -25064.162      2417.6106     -18847.366     -98.849441      232.42509      633.99069    
    422000   292.04573     -25023.823      2370.5685     -18893.424     -492.4796      -55.688772     -241.10789    
    423000   295.04445     -25113.957      2385.5923     -18929.927     -526.6794      -423.2939      -698.11704    
    424000   299.73588     -25062.857      2433.7844     -18770.237      108.47143      147.50799     -147.9388     
    425000   292.00985     -25056.291      2440.5722     -18856.349     -38.811147      175.96891      324.10184    
    426000   302.12481     -25029.465      2395.0903     -18744.784      246.17996      307.51087      134.91325    
    427000   297.12759     -25028.948      2448.8303     -18754.862     -1.5742002      53.494161     -826.25164    
    428000   307.36766     -25066.561      2376.0884     -18733.385      244.16155      520.55722     -349.25873    
    429000   297.93745     -25027.838      2437.6328     -18754.523     -18.830579      110.48351      17.320174    
    430000   298.14177     -25047.3        2438.3731     -18770.615     -304.13573     -99.4808        21.456427    
    431000   299.67937     -25098.856      2387.4642     -18853.284      147.06866      286.51178     -264.00133    
    432000   304.94864     -25033.082      2443.4433     -18663.694      311.25163      350.40493     -406.9857     
    433000   297.79711     -25017.409      2474.4781     -18709.055     -199.67214      0.028155862   -180.12445    
    434000   297.86758     -25069.975      2412.5311     -18822.661      419.67068      385.30425     -836.65297    
    435000   300.91695     -25049.019      2444.2016     -18730.777      262.32658      444.40276      244.61131    
    436000   299.52735     -25098.737      2361.881      -18880.705     -66.278099      160.59057      578.0585     
    437000   305.09949     -25021.948      2453.2099     -18640.851     -166.89116     -102.79906     -865.0127     
    438000   304.64771     -25058.416      2503.9114     -18632.434     -105.07397     -80.615619      473.25814    
    439000   301.86655     -25061.448      2440.062      -18735.12      -97.585803      184.33778     -236.17522    
    440000   308.43077     -25065.009      2437.2543     -18656.98       37.129098      32.753319      332.29212    
    441000   300.45833     -25099.838      2475.0812     -18756.621      199.39247      355.43238      990.71612    
    442000   298.84848     -25088.453      2381.7855     -18859.257     -4.5916831      162.1556       143.80749    
    443000   301.68569     -25119.054      2465.9707     -18769.146      234.60148      146.38654     -445.58771    
    444000   300.76486     -25020.066      2406.6629     -18741.32       158.41918      451.8963      -994.8592     
    445000   302.24268     -25115.11       2426.288      -18797.714      63.67037       181.54586     -796.71687    
    446000   302.63236     -25062.245      2336.7736     -18829.346     -5.8207071      25.923146     -32.691606    
    447000   304.97416     -25097.116      2448.9733     -18721.869      264.36068      587.25231      210.81456    
    448000   301.98367     -25125.308      2366.9194     -18870.615     -143.80828     -148.92628     -203.54615    
    449000   298.11595     -25033.922      2338.2239     -18857.718      371.7632       508.53891     -40.068088    
    450000   292.36844     -25062.064      2389.0204     -18909.058     -140.75119      91.490927     -90.91028     
    451000   297.67102     -25094.315      2430.2598     -18831.803      281.36529      253.39068      412.33881    
    452000   296.09942     -25094.964      2436.8386     -18846.106     -405.69576     -68.919114      1455.6612    
    453000   295.40662     -25092.376      2429.2108     -18860.066     -325.51779     -136.88949     -166.03514    
    454000   296.63875     -25046.435      2416.9388     -18810.534      11.282824      285.13828     -1055.4743    
    455000   301.91216     -25146.487      2358.7976     -18900.837      98.216864      235.83454      1123.7597    
    456000   292.29664     -25060.65       2370.9503     -18926.638     -101.85753      17.27347       343.33531    
    457000   301.97754     -25078.957      2469.6773     -18721.585      39.316347      91.685935      343.27649    
    458000   303.21365     -25116.841      2443.4424     -18769.79       184.44318      267.79456      869.89521    
    459000   296.94436     -25053.439      2483.6186     -18746.923      171.94232      193.67772      375.95423    
    460000   298.70761     -25116.124      2373.0587     -18897.468      60.587972      161.70229     -921.02361    
    461000   301.4564      -25074.421      2440.8761     -18752.559     -212.66597     -34.02958       502.63219    
    462000   307.49114     -25092.603      2441.4024     -18692.523      105.89081      324.96963      757.61969    
    463000   293.46158     -25045.745      2425.8805     -18841.805     -40.486279      123.72719      394.40653    
    464000   293.02874     -25060.048      2416.1565     -18871.405     -204.55082     -176.68439     -663.00452    
    465000   296.30554     -25049.826      2406.804      -18828.35      -397.36876     -222.4348       760.7947     
    466000   290.31613     -25100.846      2425.4428     -18937.839      13.155626      463.76699     -124.30306    
    467000   298.58429     -25078.301      2416.8183     -18817.474     -238.57562     -42.082455     -704.3978     
    468000   296.57839     -25042.121      2433.4497     -18790.486     -242.92784     -21.631464     -313.83945    
    469000   298.42437     -25114.524      2389.739      -18882.834     -163.94295      110.60368     -756.8463     
    470000   296.21584     -25049.487      2388.8103     -18847.159      85.521098      181.14924     -440.9268     
    471000   301.59331     -25062.337      2402.5032     -18777.086     -85.565193      273.61952      311.43473    
    472000   300.90851     -25080.024      2394.9572     -18811.135      66.154822      235.14325      138.16959    
    473000   302.47253     -25116.803      2471.5745     -18751.162      163.53401      237.5153       83.055722    
    474000   303.21567     -25130.878      2375.1684     -18852.075      504.54688      523.07125     -683.23334    
    475000   310.10034     -25084.228      2451.3296     -18640.63       71.367912      381.123       -770.93972    
    476000   297.55442     -25035.003      2373.1907     -18831.061     -116.77279      239.133       -613.82588    
    477000   298.99632     -25060.645      2504.4789     -18706.852     -146.01014     -72.76454      -1020.1887    
    478000   297.51436     -25092.538      2458.3801     -18803.922     -481.02713     -109.32592     -534.04644    
    479000   298.07413     -25075.959      2447.3549     -18791.162     -12.634768      48.275254      170.20024    
    480000   300.81871     -25023.245      2456.3089     -18694.16       28.317234      153.222        208.23469    
    481000   294.23414     -25086.466      2424.5759     -18873.885      200.55438      355.60401      1312.3171    
    482000   299.65619     -25020.009      2479.4615     -18682.738     -57.270531      101.85789      125.20998    
    483000   295.9507      -25044.239      2330.6338     -18903.501      77.936915      185.64267     -573.4134     
    484000   300.80817     -25092.474      2394.9186     -18824.915      128.96463      352.46591      278.13197    
    485000   301.08291     -25061.86       2445.928      -18739.755     -303.74787      19.391936      52.637539    
    486000   298.36926     -25093.13       2336.6242     -18915.264     -385.01153     -266.38361     -4.0518094    
    487000   300.12064     -25108.542      2479.9434     -18764.81      -26.349344      83.183523      539.2177     
    488000   297.97853     -25022.384      2420.1433     -18766.029     -73.02371       100.30308     -509.56022    
    489000   301.22014     -25088.834      2418.8211     -18792.069     -395.90208     -114.69278      430.25251    
    490000   296.79721     -25101.709      2446.8215     -18833.885      73.585279      142.01646     -171.65698    
    491000   298.72477     -25070.462      2408.7479     -18815.896     -5.434722       88.453148     -892.72932    
    492000   306.33494     -25076.955      2413.2386     -18719.924     -196.34637     -26.390337     -95.135884    
    493000   294.65143     -25096.497      2416.389      -18886.73       85.884576      215.58813     -278.55695    
    494000   296.47506     -25084.524      2423.26       -18844.409      203.96743      318.34258     -840.54175    
    495000   296.30092     -25057.342      2384.3828     -18858.346     -162.81801      22.773564     -145.25564    
    496000   300.49383     -25077.927      2425.4538     -18783.88       309.06423      682.31076     -94.314428    
    497000   296.89357     -25019.502      2460.8944     -18736.364      209.37306      363.54393     -665.64779    
    498000   301.70649     -25012.851      2515.749      -18612.897     -58.190205      97.080627     -151.52449    
    499000   299.72817     -25063.993      2432.2078     -18773.049      182.20839      154.00421      55.18612     
    500000   306.9206      -25014.812      2417.5317     -18645.948     -91.918167      96.670904      297.90874    
    501000   306.52496     -25113.346      2381.6569     -18785.451     -135.83864     -9.8252827     -59.250675    
    502000   308.64441     -25054.674      2414.089      -18667.06       103.5446       15.006252     -542.21319    
    503000   297.52157     -25116.121      2435.8578     -18849.935      642.69494      802.05663     -185.55309    
    504000   303.80605     -25055.982      2447.4474     -18697.299      377.66517      518.57143      829.51872    
    505000   300.69309     -25034.311      2390.5204     -18772.632      39.945532      220.72124     -570.06178    
    506000   302.5868      -25069.493      2435.3585     -18738.596      89.979583      97.240229      369.03073    
    507000   295.7647      -25043.547      2448.4536     -18787.383     -83.900565      85.441614     -245.51472    
    508000   291.97852     -25135.278      2447.9972     -18928.315     -155.08411     -19.797285      838.3047     
    509000   303.17536     -25099.103      2516.5974     -18679.39       123.48074      172.725       -462.50228    
    510000   303.06356     -25030.49       2340.218      -18788.596     -4.6019343     -36.615596     -614.24321    
    511000   299.51756     -25046.831      2415.9988     -18774.808      233.06371      401.69724      394.19747    
    512000   298.93057     -25060.388      2419.9014     -18792.019      226.91225      342.41225      146.2086     
    513000   302.50799     -25066.677      2424.4368     -18747.717      122.36705      233.48541      1498.0732    
    514000   295.6356      -25057.055      2398.4454     -18852.562     -10.047389      71.876524     -167.27936    
    515000   304.85837     -25059.957      2437.2991     -18697.875      138.70895      146.02667     -524.58122    
    516000   305.85802     -25111.039      2415.501      -18757.886     -102.90187      89.911401      935.76785    
    517000   300.59615     -25060.432      2407.3505     -18783.171     -65.016741      57.059528      870.63722    
    518000   298.04313     -25093.728      2412.122      -18844.563     -98.359861     -54.336364     -519.921      
    519000   300.71493     -25149.894      2456.9219     -18821.533     -148.11322      74.535804     -270.01597    
    520000   298.86435     -25002.73       2441.6916     -18713.424     -193.11296      223.07073     -93.021172    
    521000   300.92787     -25070.993      2400.5672     -18796.245      248.10056      467.85839      308.44924    
    522000   299.08643     -25090.342      2379.383      -18860.485      121.2783       75.332249      856.40012    
    523000   303.80357     -25056.43       2486.4007     -18658.826      328.78994      405.17566     -719.3892     
    524000   297.47126     -25083.59       2471.0711     -18782.839      392.48521      560.77622      281.46554    
    525000   301.21222     -25049.018      2433.7801     -18737.396     -246.58835      83.302821     -373.55719    
    526000   307.00746     -25049.042      2471.4474     -18625.144     -58.319931      96.171892     -1045.1347    
    527000   305.20987     -25085.977      2466.7094     -18689.96       143.23437      448.24461      622.12923    
    528000   303.6021      -25066.386      2406.8413     -18750.935      0.52833208     310.66119      472.29053    
    529000   306.26426     -25086.015      2394.9765     -18748.156     -85.654608      76.676561     -566.57528    
    530000   299.76065     -25090.225      2380.8894     -18850.182     -53.680199      139.02113     -1685.3018    
    531000   298.84691     -25066.663      2383.2799     -18835.993     -11.108146      103.50034      637.47213    
    532000   296.36342     -25066.6        2411.1919     -18839.991      180.24761      255.17762      364.97105    
    533000   297.68889     -25095.291      2458.9413     -18803.868     -320.74523     -220.20809     -1187.6405    
    534000   300.23626     -25074.124      2330.8563     -18877.991      51.324829      49.941503     -205.11406    
    535000   305.34894     -25093.179      2518.4878     -18643.592      238.46812      362.19441      98.542352    
    536000   296.7786      -25067.549      2409.9672     -18836.819     -25.3893        211.92995     -386.98883    
    537000   301.26694     -25067.197      2396.3652     -18792.285      133.91173      34.325595     -166.62414    
    538000   296.43046     -24985.414      2392.9317     -18776.201     -234.88278     -109.04768     -67.706485    
    539000   300.89118     -25100.515      2401.4624     -18825.344     -135.44814      34.579495      695.04332    
    540000   298.15147     -25116.045      2395.8119     -18881.796      232.45325      230.03013      893.32099    
    541000   300.3047      -25010.989      2386.741      -18758.089     -21.958579      1.8151551     -192.15128    
    542000   301.36433     -25117.746      2462.1234     -18775.822      17.189488      18.579992      670.63668    
    543000   301.554       -25064.513      2419.5581     -18762.713      304.40752      600.79322     -1349.4195    
    544000   300.94603     -25083.192      2355.7079     -18853.069      170.3031       421.63828     -635.57604    
    545000   304.40269     -25068.633      2418.4454     -18731.271      170.85318      493.98667     -233.99068    
    546000   301.21805     -25062.91       2487.5333     -18697.46       302.52017      424.69777     -163.47915    
    547000   303.52994     -25084.849      2419.7728     -18757.396      178.40223      328.43249     -21.122722    
    548000   295.29463     -25080.62       2423.4936     -18855.469      87.370982      246.95814      558.13758    
    549000   300.70801     -25027.362      2421.8178     -18734.194     -178.15695      22.593827     -551.87755    
    550000   303.39044     -25065.379      2452.4751     -18707.019      426.34343      472.83841     -706.78837    
    551000   294.2431      -25082.432      2400.2062     -18894.105      69.919541      61.468441      1033.4612    
    552000   297.03766     -25103.981      2384.5186     -18895.365      559.12786      530.53806     -774.82655    
    553000   294.61086     -25098.528      2456.9537     -18848.719     -141.67869     -114.54267     -997.4508     
    554000   295.69795     -25053.945      2359.5017     -18887.593     -40.429815     -106.20808     -336.16688    
    555000   296.85869     -25085.658      2415.4705     -18848.394     -78.903569      239.76254      944.54261    
    556000   302.691       -25062.526      2395.1606     -18770.486     -251.3886      -14.454598     -495.12009    
    557000   303.34351     -25049.314      2446.9469     -18697.087      316.82814      382.81863      537.25411    
[...]
    841000   297.72717     -25105.016      2398.2983     -18873.743     -170.14654     -73.320074     -17.015736    
    842000   295.55002     -25054.494      2387.2454     -18862.303     -13.026603      226.72983      285.14728    
    843000   302.10605     -25036.726      2417.5913     -18729.786     -116.33013     -78.973287      694.22121    
    844000   299.43229     -25052.004      2436.8859     -18760.191      117.92749      183.63302     -367.30099    
    845000   297.29703     -25025.375      2406.4037     -18791.534     -196.61424     -83.5744        299.7341     
    846000   293.89505     -25088.642      2421.9551     -18883.047     -39.603745     -24.045508     -309.9426     
    847000   300.73201     -25079.49       2437.2348     -18770.595      474.32698      668.11877     -112.28736    
    848000   304.26715     -25112.125      2499.5731     -18695.381      47.255955      178.35943     -250.40947    
    849000   294.79044     -25073.995      2490.392      -18788.436      430.18576      264.32605     -820.2273     
    850000   298.06385     -25081.239      2414.6949     -18829.235     -243.71937     -66.868555     -511.31537    
    851000   302.1104      -25068.009      2438.246      -18740.358      61.309258      377.83144      590.35538    
    852000   298.96766     -25085.596      2362.5739     -18874.077     -108.74663     -17.953331     -216.58367    
    853000   298.68498     -25048.003      2396.5708     -18806.127      36.44901       71.99549      -80.045562    
    854000   298.07585     -25009.605      2417.8136     -18754.328      97.779476      494.88774      405.6069     
    855000   304.24344     -25083.062      2393.1552     -18773.041      191.93161      192.97782     -76.11395     
    856000   299.85761     -25051.689      2413.6548     -18777.631     -17.538572      147.0126      -471.72596    
    857000   297.82821     -25091.183      2397.0439     -18859.864      7.5096236      27.87115      -496.13455    
    858000   296.0246      -25134.489      2471.6528     -18851.78       523.36185      449.72422     -617.35332    
    859000   299.06831     -25043.689      2418.9536     -18774.494      189.4791       134.09691     -1418.1155    
    860000   298.41512     -25049.378      2446.5134     -18761.033      261.53888      330.51742     -1290.2716    
    861000   298.22108     -25101.045      2388.567      -18873.144      622.53875      719.83526     -657.30512    
    862000   307.84021     -25054.194      2362.8393     -18728.183     -302.70583     -175.6758      -326.08622    
    863000   301.44161     -25048.827      2462.9266     -18705.105      182.4993       275.26483      714.0153     
    864000   302.80951     -25105.929      2452.5304     -18754.993      308.51013      598.73052     -255.26288    
    865000   297.456       -25047.509      2454.4849     -18763.54       51.12701       161.44164     -269.89129    
    866000   299.00774     -25071.205      2355.6403     -18866.104      447.76606      582.25491      519.8817     
    867000   297.98605     -25081.055      2399.1467     -18845.6        85.54012       172.70184      191.21342    
    868000   294.0817      -25103.506      2367.2472     -18950.216     -26.738137      396.73919      243.94599    
    869000   302.11299     -25044.983      2453.1199     -18702.425      327.61006      464.0973      -623.52787    
    870000   303.83759     -25056.594      2402.7722     -18742.181     -134.41742     -179.9983      -854.15173    
    871000   303.63246     -25029.904      2410.4859     -18710.418     -77.619222     -10.807411      18.211356    
    872000   304.38432     -25083.811      2500.4092     -18664.722     -189.58554     -83.825302      1030.4136    
    873000   297.16491     -25059.328      2408.8331     -18824.759      221.75757      333.51127      880.17755    
    874000   298.08976     -25069.355      2409.4762     -18822.236     -98.388311      119.62055     -690.62885    
    875000   302.01204     -25119.32       2439.5769     -18791.605     -161.41216     -117.52513     -658.69747    
    876000   298.03724     -25065.02       2379.3737     -18848.68      -327.88618     -234.85776     -211.56695    
    877000   301.90953     -25133.138      2393.9065     -18852.413      2.8858691      63.241043      64.485234    
    878000   302.07129     -25101.049      2447.1383     -18765.009     -164.62578     -54.287259      570.93287    
    879000   299.36014     -25091.242      2379.8742     -18857.37       78.472051      240.39828     -330.17861    
    880000   304.55191     -25095.776      2353.0529     -18821.886     -209.11638     -144.35788      88.20264     
    881000   302.80381     -25057.867      2438.5385     -18720.996     -40.780658      32.744429      16.067411    
    882000   301.47497     -25088.51       2412.4447     -18794.841     -198.61204      19.12519       1374.6885    
    883000   297.05599     -25078.436      2419.6128     -18834.489      90.980637      285.48704     -815.04569    
    884000   290.50954     -25099.059      2393.45       -18965.555      336.59088      389.79855      373.98558    
    885000   290.89664     -25092.801      2364.8059     -18982.958      214.91653      181.29531     -617.35578    
    886000   299.9199      -25076.575      2403.6018     -18811.769     -261.10032      47.453473     -294.33013    
    887000   308.47241     -25105.991      2492.3267     -18642.354      285.7214       386.76932      963.14233    
    888000   294.36582     -25094.849      2337.41       -18967.739      2.3064118      157.14122     -119.50437    
    889000   301.75346     -25054.53       2463.913      -18705.807      266.98471      385.93165      175.05641    
    890000   304.24668     -25025.681      2415.8756     -18692.897      24.589042      237.80603      380.81729    
    891000   303.94872     -25031.546      2332.8507     -18785.624     -85.695067      18.51441      -786.8923     
    892000   299.68061     -25088.755      2374.9686     -18855.663      66.444166      282.88597      879.6264     
    893000   301.01905     -25089.256      2441.9717     -18771.93       304.70924      383.27622     -109.31658    
    894000   297.92828     -25015.298      2399.6691     -18780.064      349.62408      493.83236      258.13309    
    895000   302.90234     -25108.078      2432.7319     -18775.746      168.96715      379.91464      829.67742    
    896000   297.43078     -25045.636      2353.2799     -18863.197      10.001246      183.85764     -2.2100485    
    897000   300.48865     -25026.814      2416.6827     -18741.605     -312.57066     -135.5082       610.94003    
    898000   297.13705     -25059.247      2418.5572     -18815.312      116.53346      175.86874      434.67361    
    899000   302.75939     -25029.92       2443.2464     -18688.913      168.02109      241.02954      345.09476    
    900000   301.95101     -25128.076      2364.22       -18876.503      390.21326      634.49292      548.08114    
    901000   301.79678     -25039.527      2368.1433     -18786.016      90.989793      423.14267      1265.6205    
    902000   302.59626     -25079.836      2421.0543     -18763.122      200.27278      407.90078     -31.765027    
    903000   297.50466     -25097.871      2493.5845     -18774.176     -87.689288      55.387501      373.83864    
    904000   305.43682     -25036.934      2430.7904     -18673.913     -127.53039      18.53003      -512.23614    
    905000   307.5695      -25070.601      2408.559      -18702.356      166.47218      21.341551      553.97209    
    906000   296.90618     -25109.87       2336.6041     -18950.861     -204.39417      12.263986     -720.0998     
    907000   299.71964     -25038.872      2360.1331     -18820.113     -29.942015      265.00532      349.57254    
    908000   296.13814     -25087.929      2375.6971     -18899.714      158.15174      183.31637      330.25961    
    909000   299.29382     -25041.731      2393.2951     -18795.292      27.663629      226.49514      429.64424    
    910000   292.02936     -25043.344      2479.5554     -18804.168     -17.154894      104.94432     -788.23677    
    911000   300.09516     -25085.855      2421.8263     -18800.568      86.887831      451.86196      271.85195    
    912000   296.83359     -25099.398      2426.0699     -18851.858      192.65335      255.71732     -315.8772     
    913000   301.8296      -25049.648      2394.6049     -18769.253     -230.95978     -34.708758     -149.49493    
    914000   290.40917     -25101.092      2425.4343     -18936.896     -242.4617       64.035939      247.74731    
    915000   303.68237     -25095.495      2465.2046     -18720.648      134.15192      351.45358     -261.43415    
    916000   295.14884     -25079.18       2461.5035     -18817.895     -10.243516      167.78929      135.95063    
    917000   300.31323     -25119.083      2478.1135     -18774.701     -128.20049     -13.457781     -79.86176     
    918000   295.1555      -25017.791      2395.9071     -18822.017     -189.27292      44.989825     -28.964682    
    919000   300.42097     -25043.773      2439.106      -18737.012      219.6703       344.59557      357.01653    
    920000   295.80729     -25114.115      2387.3255     -18918.531     -23.426444      81.15472       721.98747    
    921000   303.17549     -25119.484      2444.9045     -18771.462      300.22071      151.8366      -184.65028    
    922000   300.9894      -25120.725      2422.6129     -18823.139      5.2366976      77.279906     -853.95063    
    923000   300.0539      -25059.442      2409.4892     -18787.024      287.00518      425.18595      581.58662    
    924000   304.16818     -25072.984      2347.1826     -18809.905      128.50463      336.83399     -369.46414    
    925000   299.51709     -25050.046      2384.8831     -18809.144      193.75231      474.05472     -863.17537    
    926000   300.01056     -25094.233      2389.0359     -18842.825     -144.36672     -12.847514     -826.9044     
    927000   298.24278     -25082.935      2415.1261     -18828.196     -117.47637     -44.716581     -225.09523    
    928000   299.29844     -25097.212      2432.1826     -18811.826      350.7838       551.83153     -443.89075    
    929000   302.2286      -25121.008      2389.2319     -18840.849      631.80732      492.99482      641.21513    
    930000   302.18859     -25052.984      2398.2989     -18764.273      37.648904      97.478847     -169.78776    
    931000   297.90537     -25084.41       2405.8419     -18843.299      157.9884       264.85924     -862.38896    
    932000   302.48609     -25080.726      2353.7891     -18832.695     -294.70656      10.063904     -124.0327     
    933000   300.52614     -25063.712      2403.5866     -18791.116      139.48222      210.91031      719.64989    
    934000   302.6435      -25075.873      2450.5941     -18729.011      282.26016      169.11005     -291.59712    
    935000   296.20707     -25033.897      2396.7468     -18823.745     -163.71487      81.999421     -105.26365    
    936000   302.52695     -25084.408      2448.3532     -18741.287      277.69232      332.65105      936.01972    
    937000   302.217       -25094.927      2452.0774     -18752.072      539.33893      534.47199      739.3474     
    938000   296.37288     -25085.968      2370.7032     -18899.725     -183.99912     -164.33441      979.83903    
    939000   297.1458      -25097.093      2399.6831     -18871.92      -180.64668     -174.07269      811.26708    
    940000   300.44952     -25069.588      2421.725      -18779.84      -23.323524      164.9518       66.538717    
    941000   307.51477     -25143.442      2512.4828     -18671.978      66.424706      117.67853      770.45375    
    942000   301.03137     -25082.896      2464.5288     -18742.854      177.66207      321.24808     -134.97208    
    943000   298.84368     -25013.655      2445.4338     -18720.872      69.570389      310.4698      -357.95033    
    944000   295.4912      -25100.824      2356.6223     -18940.013     -119.04044     -32.956834      494.54306    
    945000   299.0235      -25127.664      2367.495      -18910.505      286.38471      271.67124      632.12185    
    946000   297.89544     -25031.903      2454.9473     -18741.815     -69.399736      289.09263      49.487514    
    947000   307.20305     -25111.682      2389.743      -18766.97       717.39467      784.2895       823.66419    
    948000   299.52847     -25106.309      2443.8192     -18806.324     -164.871       -67.514463      251.50374    
    949000   298.73829     -25055.171      2410.5653     -18798.614     -103.35789      227.65089      639.73172    
    950000   303.49989     -25037.228      2386.938      -18742.996     -3.2557934      178.30429     -5.1020856    
    951000   300.00254     -25065.366      2500.1349     -18702.963     -224.468       -45.685986     -817.85713    
    952000   304.19951     -25093.118      2371.4837     -18805.333     -226.21269     -145.80045     -592.97741    
    953000   302.78561     -25049.891      2446.6438     -18705.149     -158.4057       11.020249     -670.8208     
    954000   300.27337     -25032.827      2374.162      -18792.91      -291.68359     -365.51929      84.572033    
    955000   299.00817     -25043.609      2401.0767     -18793.065      94.257617      197.20454      709.15642    
    956000   299.74991     -25052.838      2463.5021     -18730.32       72.118221      257.68018     -282.20639    
    957000   297.1119      -25060.857      2433.5341     -18802.269     -221.91044     -161.22209     -429.68653    
    958000   303.65117     -25066.001      2526.4317     -18630.328     -34.524258      104.73807      141.61108    
    959000   301.78892     -25027.547      2390.2115     -18752.07      -106.2908       158.67762     -793.2605     
    960000   300.9231      -25111.839      2382.4241     -18855.295     -76.024371      121.34053      1309.5466    
    961000   304.16387     -25066.692      2392.8387     -18758.011     -157.62177      35.611011      651.05861    
    962000   297.24556     -25077.674      2421.794      -18829.105      0.63657419     223.5836       436.19213    
    963000   298.02316     -25099.793      2410.8345     -18852.173     -114.66715      56.22143      -1037.4048    
    964000   303.3853      -25062.098      2470.0182     -18686.261      460.55019      447.78431      291.06685    
    965000   295.50586     -25061.611      2432.8503     -18824.383      142.97253      257.45386     -241.85532    
    966000   300.80332     -25099.866      2369.4439     -18857.844      126.5971       199.53086     -235.93523    
    967000   296.64731     -25103.56       2422.3736     -18862.114     -107.69126     -163.28192     -37.041966    
    968000   302.97065     -25038.714      2431.1271     -18707.107      199.01092      488.53485     -130.33167    
    969000   296.67624     -25086.394      2371.6586     -18895.29      -2.4249387      113.95165      613.92737    
    970000   301.53118     -25074.019      2454.433      -18737.638      81.294022      44.394774      829.92927    
    971000   295.31514     -25071.585      2477.5615     -18792.101      387.68317      394.34131     -667.18394    
    972000   297.26178     -25107.063      2478.5392     -18801.54      -137.6066      -31.031199     -220.55308    
    973000   300.91651     -25063.751      2382.9953     -18806.72       4.8319354      237.31589     -736.27451    
    974000   295.49006     -25106.526      2443.1835     -18859.169      18.205291      142.31289      722.77827    
    975000   294.30169     -25114.865      2429.4601     -18896.53       221.82003      247.03473     -47.881525    
    976000   296.43272     -25059.489      2447.3671     -18795.812      377.85591      486.57441      268.34027    
    977000   303.87874     -25077.909      2388.1477     -18777.591     -128.00839      82.333037     -153.38561    
    978000   298.5073      -25084.405      2456.87       -18784.516      26.394184     -38.853532      738.19387    
    979000   303.90048     -25074.43       2367.612      -18794.367      302.1787       414.13838     -1164.5895    
    980000   303.27713     -25088.213      2467.4755     -18716.312     -153.36141     -180.10096      331.3803     
    981000   302.58531     -25071.669      2466.2574     -18709.892      145.5415       391.3567      -10.217849    
    982000   303.85466     -25137.918      2376.589      -18849.468      473.94682      660.12567     -893.29473    
    983000   303.93029     -25088.493      2409.2178     -18766.441     -8.8197458      38.516593      417.17011    
    984000   295.04559     -25080.455      2397.5991     -18884.404     -152.21881     -81.241559     -1031.2456    
    985000   304.701       -25074.63       2363.3805     -18788.493      205.97498      316.46745      1008.956     
    986000   301.2289      -25087.97       2409.9329     -18799.981     -203.07617      111.17406      112.97772    
    987000   304.2709      -25057.559      2389.324      -18751.016      29.364013      302.75532      54.235339    
    988000   302.37438     -25080.415      2441.0786     -18746.533      439.96162      378.14888     -252.74069    
    989000   297.55887     -25039.044      2417.9424     -18790.294     -119.28436     -28.266955      590.44907    
    990000   305.35154     -25059.843      2429.9722     -18698.738      46.664923      37.835088     -1228.0517    
    991000   299.17671     -25116.459      2391.5888     -18873.234      44.896887     -1.8859116      481.66001    
    992000   304.32731     -25098.088      2425.9976     -18754.145      131.03842      86.275883     -726.11871    
    993000   303.49805     -25069.793      2462.8454     -18699.678     -93.874487      69.822762      490.15033    
    994000   299.52169     -25052.882      2442.4451     -18754.359      240.16504      401.40104      101.76056    
    995000   301.21376     -25031.986      2355.2833     -18798.841     -72.982407      196.36752      611.52099    
    996000   299.37703     -25083.641      2453.4766     -18775.95       510.07838      557.50992      42.26108     
    997000   302.68743     -25086.763      2371.3691     -18818.56      -255.19159     -127.37499      378.11088    
    998000   304.49002     -25049.418      2389.8531     -18739.524      310.84755      500.06345      477.46951    
    999000   301.1982      -25078.137      2368.3644     -18832.111      31.975695      260.07165      434.044      
   1000000   298.67998     -25104.1        2423.655      -18835.203     -133.56392      25.912877      773.7599     
Loop time of 3117.35 on 6 procs for 1000000 steps with 4320 atoms

Performance: 332.590 ns/day, 0.072 hours/ns, 320.785 timesteps/s, 1.386 Matom-step/s
570.6% CPU use with 1 MPI tasks x 6 OpenMP threads

MPI task timing breakdown:
Section |  min time  |  avg time  |  max time  |%varavg| %total
---------------------------------------------------------------
Pair    | 1723       | 1723       | 1723       |   0.0 | 55.27
Bond    | 221.26     | 221.26     | 221.26     |   0.0 |  7.10
Neigh   | 781.41     | 781.41     | 781.41     |   0.0 | 25.07
Comm    | 76.831     | 76.831     | 76.831     |   0.0 |  2.46
Output  | 8.3302     | 8.3302     | 8.3302     |   0.0 |  0.27
Modify  | 296.52     | 296.52     | 296.52     |   0.0 |  9.51
Other   |            | 10.01      |            |       |  0.32

Nlocal:           4320 ave        4320 max        4320 min
Histogram: 1 0 0 0 0 0 0 0 0 0
Nghost:          10695 ave       10695 max       10695 min
Histogram: 1 0 0 0 0 0 0 0 0 0
Neighs:         206004 ave      206004 max      206004 min
Histogram: 1 0 0 0 0 0 0 0 0 0

Total # of neighbors = 206004
Ave neighs/atom = 47.686111
Ave special neighs/atom = 12
Neighbor list builds = 109644
Dangerous builds = 0


Total wall time: 0:52:34
