
 4320 atoms
 4320 bonds
 5760 angles
 4320 impropers
 3 atom types
 3 bond types
 6 angle types
 3 improper types
 0.000000 35.751600 xlo xhi
 0.000000 95.790596 ylo yhi
 0.000000 207.770004 zlo zhi

 Atoms # full

1 1 1 0.00 2.940 34.670 2.390 #  CL1
2 1 2 0.00 1.030 36.230 2.730 #  CL2
3 1 3 0.00 4.420 33.230 2.480 #  CL3
4 2 1 0.00 2.250 34.950 7.590 #  CL1
5 2 2 0.00 4.130 33.400 7.910 #  CL2
6 2 3 0.00 0.760 36.330 7.760 #  CL3
7 3 1 0.00 2.940 34.670 12.780 #  CL1
8 3 2 0.00 1.030 36.230 13.120 #  CL2
9 3 3 0.00 4.420 33.230 12.870 #  CL3
10 4 1 0.00 2.250 34.950 17.980 #  CL1
11 4 2 0.00 4.130 33.400 18.300 #  CL2
12 4 3 0.00 0.760 36.330 18.140 #  CL3
13 5 1 0.00 2.940 34.670 23.170 #  CL1
14 5 2 0.00 1.030 36.230 23.510 #  CL2
15 5 3 0.00 4.420 33.230 23.260 #  CL3
16 6 1 0.00 2.250 34.950 28.370 #  CL1
17 6 2 0.00 4.130 33.400 28.690 #  CL2
18 6 3 0.00 0.760 36.330 28.530 #  CL3
19 7 1 0.00 2.930 34.670 33.560 #  CL1
20 7 2 0.00 1.030 36.230 33.890 #  CL2
21 7 3 0.00 4.420 33.230 33.650 #  CL3
22 8 1 0.00 2.250 34.950 38.760 #  CL1
23 8 2 0.00 4.130 33.400 39.080 #  CL2
24 8 3 0.00 0.760 36.330 38.920 #  CL3
25 9 1 0.00 2.930 34.670 43.950 #  CL1
26 9 2 0.00 1.030 36.230 44.280 #  CL2
27 9 3 0.00 4.420 33.230 44.040 #  CL3
28 10 1 0.00 2.250 34.950 49.140 #  CL1
29 10 2 0.00 4.130 33.400 49.470 #  CL2
30 10 3 0.00 0.760 36.330 49.310 #  CL3
31 11 1 0.00 2.930 34.670 54.330 #  CL1
32 11 2 0.00 1.030 36.230 54.670 #  CL2
33 11 3 0.00 4.420 33.230 54.430 #  CL3
34 12 1 0.00 2.250 34.950 59.530 #  CL1
35 12 2 0.00 4.130 33.400 59.850 #  CL2
36 12 3 0.00 0.770 36.330 59.700 #  CL3
37 13 1 0.00 2.940 34.670 64.720 #  CL1
38 13 2 0.00 1.030 36.230 65.060 #  CL2
39 13 3 0.00 4.420 33.230 64.810 #  CL3
40 14 1 0.00 2.250 34.950 69.920 #  CL1
41 14 2 0.00 4.130 33.400 70.240 #  CL2
42 14 3 0.00 0.760 36.330 70.090 #  CL3
43 15 1 0.00 2.940 34.670 75.110 #  CL1
44 15 2 0.00 1.030 36.230 75.450 #  CL2
45 15 3 0.00 4.420 33.230 75.200 #  CL3
46 16 1 0.00 2.250 34.950 80.310 #  CL1
47 16 2 0.00 4.130 33.400 80.630 #  CL2
48 16 3 0.00 0.760 36.330 80.470 #  CL3
49 17 1 0.00 2.940 34.670 85.500 #  CL1
50 17 2 0.00 1.030 36.230 85.840 #  CL2
51 17 3 0.00 4.420 33.230 85.590 #  CL3
52 18 1 0.00 2.250 34.950 90.700 #  CL1
53 18 2 0.00 4.130 33.400 91.020 #  CL2
54 18 3 0.00 0.760 36.330 90.860 #  CL3
55 19 1 0.00 2.940 34.670 95.890 #  CL1
56 19 2 0.00 1.030 36.230 96.220 #  CL2
57 19 3 0.00 4.420 33.230 95.980 #  CL3
58 20 1 0.00 2.250 34.950 101.090 #  CL1
59 20 2 0.00 4.130 33.400 101.410 #  CL2
60 20 3 0.00 0.760 36.330 101.250 #  CL3
61 21 1 0.00 2.930 34.670 106.280 #  CL1
62 21 2 0.00 1.030 36.230 106.610 #  CL2
63 21 3 0.00 4.420 33.230 106.370 #  CL3
64 22 1 0.00 2.250 34.950 111.470 #  CL1
65 22 2 0.00 4.130 33.400 111.800 #  CL2
66 22 3 0.00 0.760 36.330 111.640 #  CL3
67 23 1 0.00 2.930 34.670 116.670 #  CL1
68 23 2 0.00 1.030 36.230 117.000 #  CL2
69 23 3 0.00 4.420 33.230 116.760 #  CL3
70 24 1 0.00 2.250 34.950 121.860 #  CL1
71 24 2 0.00 4.130 33.400 122.180 #  CL2
72 24 3 0.00 0.770 36.330 122.030 #  CL3
73 25 1 0.00 2.940 34.670 127.050 #  CL1
74 25 2 0.00 1.030 36.230 127.390 #  CL2
75 25 3 0.00 4.420 33.230 127.150 #  CL3
76 26 1 0.00 2.250 34.950 132.250 #  CL1
77 26 2 0.00 4.130 33.400 132.570 #  CL2
78 26 3 0.00 0.770 36.330 132.420 #  CL3
79 27 1 0.00 2.940 34.670 137.440 #  CL1
80 27 2 0.00 1.030 36.230 137.780 #  CL2
81 27 3 0.00 4.420 33.230 137.530 #  CL3
82 28 1 0.00 2.250 34.950 142.640 #  CL1
83 28 2 0.00 4.130 33.400 142.960 #  CL2
84 28 3 0.00 0.760 36.330 142.810 #  CL3
85 29 1 0.00 2.940 34.670 147.830 #  CL1
86 29 2 0.00 1.030 36.230 148.170 #  CL2
87 29 3 0.00 4.420 33.230 147.920 #  CL3
88 30 1 0.00 2.250 34.950 153.030 #  CL1
89 30 2 0.00 4.130 33.400 153.350 #  CL2
90 30 3 0.00 0.760 36.330 153.190 #  CL3
91 31 1 0.00 2.940 34.670 158.220 #  CL1
92 31 2 0.00 1.030 36.230 158.560 #  CL2
93 31 3 0.00 4.420 33.230 158.310 #  CL3
94 32 1 0.00 2.250 34.950 163.420 #  CL1
95 32 2 0.00 4.130 33.400 163.740 #  CL2
96 32 3 0.00 0.760 36.330 163.580 #  CL3
97 33 1 0.00 2.930 34.670 168.610 #  CL1
98 33 2 0.00 1.030 36.230 168.940 #  CL2
99 33 3 0.00 4.420 33.230 168.700 #  CL3
100 34 1 0.00 2.250 34.950 173.810 #  CL1
101 34 2 0.00 4.130 33.400 174.130 #  CL2
102 34 3 0.00 0.760 36.330 173.970 #  CL3
103 35 1 0.00 2.930 34.670 179.000 #  CL1
104 35 2 0.00 1.030 36.230 179.330 #  CL2
105 35 3 0.00 4.420 33.230 179.090 #  CL3
106 36 1 0.00 2.250 34.950 184.190 #  CL1
107 36 2 0.00 4.130 33.400 184.520 #  CL2
108 36 3 0.00 0.760 36.330 184.360 #  CL3
109 37 1 0.00 2.930 34.670 189.380 #  CL1
110 37 2 0.00 1.030 36.230 189.720 #  CL2
111 37 3 0.00 4.420 33.230 189.480 #  CL3
112 38 1 0.00 2.250 34.950 194.580 #  CL1
113 38 2 0.00 4.130 33.400 194.900 #  CL2
114 38 3 0.00 0.770 36.330 194.750 #  CL3
115 39 1 0.00 2.940 34.670 199.770 #  CL1
116 39 2 0.00 1.030 36.230 200.110 #  CL2
117 39 3 0.00 4.420 33.230 199.870 #  CL3
118 40 1 0.00 2.250 34.950 204.970 #  CL1
119 40 2 0.00 4.130 33.400 205.290 #  CL2
120 40 3 0.00 0.770 36.330 205.140 #  CL3
121 41 1 0.00 2.940 39.990 2.390 #  CL1
122 41 2 0.00 1.030 41.550 2.730 #  CL2
123 41 3 0.00 4.420 38.550 2.480 #  CL3
124 42 1 0.00 2.250 40.270 7.590 #  CL1
125 42 2 0.00 4.130 38.720 7.910 #  CL2
126 42 3 0.00 0.760 41.650 7.760 #  CL3
127 43 1 0.00 2.940 39.990 12.780 #  CL1
128 43 2 0.00 1.030 41.550 13.120 #  CL2
129 43 3 0.00 4.420 38.550 12.870 #  CL3
130 44 1 0.00 2.250 40.270 17.980 #  CL1
131 44 2 0.00 4.130 38.720 18.300 #  CL2
132 44 3 0.00 0.760 41.650 18.140 #  CL3
133 45 1 0.00 2.940 39.990 23.170 #  CL1
134 45 2 0.00 1.030 41.550 23.510 #  CL2
135 45 3 0.00 4.420 38.550 23.260 #  CL3
136 46 1 0.00 2.250 40.270 28.370 #  CL1
137 46 2 0.00 4.130 38.720 28.690 #  CL2
138 46 3 0.00 0.760 41.650 28.530 #  CL3
139 47 1 0.00 2.930 39.990 33.560 #  CL1
140 47 2 0.00 1.030 41.550 33.890 #  CL2
141 47 3 0.00 4.420 38.550 33.650 #  CL3
142 48 1 0.00 2.250 40.270 38.760 #  CL1
143 48 2 0.00 4.130 38.720 39.080 #  CL2
144 48 3 0.00 0.760 41.650 38.920 #  CL3
145 49 1 0.00 2.930 39.990 43.950 #  CL1
146 49 2 0.00 1.030 41.550 44.280 #  CL2
147 49 3 0.00 4.420 38.550 44.040 #  CL3
148 50 1 0.00 2.250 40.270 49.140 #  CL1
149 50 2 0.00 4.130 38.720 49.470 #  CL2
150 50 3 0.00 0.760 41.650 49.310 #  CL3
151 51 1 0.00 2.930 39.990 54.330 #  CL1
152 51 2 0.00 1.030 41.550 54.670 #  CL2
153 51 3 0.00 4.420 38.550 54.430 #  CL3
154 52 1 0.00 2.250 40.270 59.530 #  CL1
155 52 2 0.00 4.130 38.720 59.850 #  CL2
156 52 3 0.00 0.770 41.650 59.700 #  CL3
157 53 1 0.00 2.940 39.990 64.720 #  CL1
158 53 2 0.00 1.030 41.550 65.060 #  CL2
159 53 3 0.00 4.420 38.550 64.810 #  CL3
160 54 1 0.00 2.250 40.270 69.920 #  CL1
161 54 2 0.00 4.130 38.720 70.240 #  CL2
162 54 3 0.00 0.760 41.650 70.090 #  CL3
163 55 1 0.00 2.940 39.990 75.110 #  CL1
164 55 2 0.00 1.030 41.550 75.450 #  CL2
165 55 3 0.00 4.420 38.550 75.200 #  CL3
166 56 1 0.00 2.250 40.270 80.310 #  CL1
167 56 2 0.00 4.130 38.720 80.630 #  CL2
168 56 3 0.00 0.760 41.650 80.470 #  CL3
169 57 1 0.00 2.940 39.990 85.500 #  CL1
170 57 2 0.00 1.030 41.550 85.840 #  CL2
171 57 3 0.00 4.420 38.550 85.590 #  CL3
172 58 1 0.00 2.250 40.270 90.700 #  CL1
173 58 2 0.00 4.130 38.720 91.020 #  CL2
174 58 3 0.00 0.760 41.650 90.860 #  CL3
175 59 1 0.00 2.940 39.990 95.890 #  CL1
176 59 2 0.00 1.030 41.550 96.220 #  CL2
177 59 3 0.00 4.420 38.550 95.980 #  CL3
178 60 1 0.00 2.250 40.270 101.090 #  CL1
179 60 2 0.00 4.130 38.720 101.410 #  CL2
180 60 3 0.00 0.760 41.650 101.250 #  CL3
181 61 1 0.00 2.930 39.990 106.280 #  CL1
182 61 2 0.00 1.030 41.550 106.610 #  CL2
183 61 3 0.00 4.420 38.550 106.370 #  CL3
184 62 1 0.00 2.250 40.270 111.470 #  CL1
185 62 2 0.00 4.130 38.720 111.800 #  CL2
186 62 3 0.00 0.760 41.650 111.640 #  CL3
187 63 1 0.00 2.930 39.990 116.670 #  CL1
188 63 2 0.00 1.030 41.550 117.000 #  CL2
189 63 3 0.00 4.420 38.550 116.760 #  CL3
190 64 1 0.00 2.250 40.270 121.860 #  CL1
191 64 2 0.00 4.130 38.720 122.180 #  CL2
192 64 3 0.00 0.770 41.650 122.030 #  CL3
193 65 1 0.00 2.940 39.990 127.050 #  CL1
194 65 2 0.00 1.030 41.550 127.390 #  CL2
195 65 3 0.00 4.420 38.550 127.150 #  CL3
196 66 1 0.00 2.250 40.270 132.250 #  CL1
197 66 2 0.00 4.130 38.720 132.570 #  CL2
198 66 3 0.00 0.770 41.650 132.420 #  CL3
199 67 1 0.00 2.940 39.990 137.440 #  CL1
200 67 2 0.00 1.030 41.550 137.780 #  CL2
201 67 3 0.00 4.420 38.550 137.530 #  CL3
202 68 1 0.00 2.250 40.270 142.640 #  CL1
203 68 2 0.00 4.130 38.720 142.960 #  CL2
204 68 3 0.00 0.760 41.650 142.810 #  CL3
205 69 1 0.00 2.940 39.990 147.830 #  CL1
206 69 2 0.00 1.030 41.550 148.170 #  CL2
207 69 3 0.00 4.420 38.550 147.920 #  CL3
208 70 1 0.00 2.250 40.270 153.030 #  CL1
209 70 2 0.00 4.130 38.720 153.350 #  CL2
210 70 3 0.00 0.760 41.650 153.190 #  CL3
211 71 1 0.00 2.940 39.990 158.220 #  CL1
212 71 2 0.00 1.030 41.550 158.560 #  CL2
213 71 3 0.00 4.420 38.550 158.310 #  CL3
214 72 1 0.00 2.250 40.270 163.420 #  CL1
215 72 2 0.00 4.130 38.720 163.740 #  CL2
216 72 3 0.00 0.760 41.650 163.580 #  CL3
217 73 1 0.00 2.930 39.990 168.610 #  CL1
218 73 2 0.00 1.030 41.550 168.940 #  CL2
219 73 3 0.00 4.420 38.550 168.700 #  CL3
220 74 1 0.00 2.250 40.270 173.810 #  CL1
221 74 2 0.00 4.130 38.720 174.130 #  CL2
222 74 3 0.00 0.760 41.650 173.970 #  CL3
223 75 1 0.00 2.930 39.990 179.000 #  CL1
224 75 2 0.00 1.030 41.550 179.330 #  CL2
225 75 3 0.00 4.420 38.550 179.090 #  CL3
226 76 1 0.00 2.250 40.270 184.190 #  CL1
227 76 2 0.00 4.130 38.720 184.520 #  CL2
228 76 3 0.00 0.760 41.650 184.360 #  CL3
229 77 1 0.00 2.930 39.990 189.380 #  CL1
230 77 2 0.00 1.030 41.550 189.720 #  CL2
231 77 3 0.00 4.420 38.550 189.480 #  CL3
232 78 1 0.00 2.250 40.270 194.580 #  CL1
233 78 2 0.00 4.130 38.720 194.900 #  CL2
234 78 3 0.00 0.770 41.650 194.750 #  CL3
235 79 1 0.00 2.940 39.990 199.770 #  CL1
236 79 2 0.00 1.030 41.550 200.110 #  CL2
237 79 3 0.00 4.420 38.550 199.870 #  CL3
238 80 1 0.00 2.250 40.270 204.970 #  CL1
239 80 2 0.00 4.130 38.720 205.290 #  CL2
240 80 3 0.00 0.770 41.650 205.140 #  CL3
241 81 1 0.00 2.940 45.310 2.390 #  CL1
242 81 2 0.00 1.030 46.870 2.730 #  CL2
243 81 3 0.00 4.420 43.870 2.480 #  CL3
244 82 1 0.00 2.250 45.590 7.590 #  CL1
245 82 2 0.00 4.130 44.040 7.910 #  CL2
246 82 3 0.00 0.760 46.970 7.760 #  CL3
247 83 1 0.00 2.940 45.310 12.780 #  CL1
248 83 2 0.00 1.030 46.870 13.120 #  CL2
249 83 3 0.00 4.420 43.870 12.870 #  CL3
250 84 1 0.00 2.250 45.590 17.980 #  CL1
251 84 2 0.00 4.130 44.040 18.300 #  CL2
252 84 3 0.00 0.760 46.970 18.140 #  CL3
253 85 1 0.00 2.940 45.310 23.170 #  CL1
254 85 2 0.00 1.030 46.870 23.510 #  CL2
255 85 3 0.00 4.420 43.870 23.260 #  CL3
256 86 1 0.00 2.250 45.590 28.370 #  CL1
257 86 2 0.00 4.130 44.040 28.690 #  CL2
258 86 3 0.00 0.760 46.970 28.530 #  CL3
259 87 1 0.00 2.930 45.310 33.560 #  CL1
260 87 2 0.00 1.030 46.870 33.890 #  CL2
261 87 3 0.00 4.420 43.870 33.650 #  CL3
262 88 1 0.00 2.250 45.590 38.760 #  CL1
263 88 2 0.00 4.130 44.040 39.080 #  CL2
264 88 3 0.00 0.760 46.970 38.920 #  CL3
265 89 1 0.00 2.930 45.310 43.950 #  CL1
266 89 2 0.00 1.030 46.870 44.280 #  CL2
267 89 3 0.00 4.420 43.870 44.040 #  CL3
268 90 1 0.00 2.250 45.590 49.140 #  CL1
269 90 2 0.00 4.130 44.040 49.470 #  CL2
270 90 3 0.00 0.760 46.970 49.310 #  CL3
271 91 1 0.00 2.930 45.310 54.330 #  CL1
272 91 2 0.00 1.030 46.870 54.670 #  CL2
273 91 3 0.00 4.420 43.870 54.430 #  CL3
274 92 1 0.00 2.250 45.590 59.530 #  CL1
275 92 2 0.00 4.130 44.040 59.850 #  CL2
276 92 3 0.00 0.770 46.970 59.700 #  CL3
277 93 1 0.00 2.940 45.310 64.720 #  CL1
278 93 2 0.00 1.030 46.870 65.060 #  CL2
279 93 3 0.00 4.420 43.870 64.810 #  CL3
280 94 1 0.00 2.250 45.590 69.920 #  CL1
281 94 2 0.00 4.130 44.040 70.240 #  CL2
282 94 3 0.00 0.760 46.970 70.090 #  CL3
283 95 1 0.00 2.940 45.310 75.110 #  CL1
284 95 2 0.00 1.030 46.870 75.450 #  CL2
285 95 3 0.00 4.420 43.870 75.200 #  CL3
286 96 1 0.00 2.250 45.590 80.310 #  CL1
287 96 2 0.00 4.130 44.040 80.630 #  CL2
288 96 3 0.00 0.760 46.970 80.470 #  CL3
289 97 1 0.00 2.940 45.310 85.500 #  CL1
290 97 2 0.00 1.030 46.870 85.840 #  CL2
291 97 3 0.00 4.420 43.870 85.590 #  CL3
292 98 1 0.00 2.250 45.590 90.700 #  CL1
293 98 2 0.00 4.130 44.040 91.020 #  CL2
294 98 3 0.00 0.760 46.970 90.860 #  CL3
295 99 1 0.00 2.940 45.310 95.890 #  CL1
296 99 2 0.00 1.030 46.870 96.220 #  CL2
297 99 3 0.00 4.420 43.870 95.980 #  CL3
298 100 1 0.00 2.250 45.590 101.090 #  CL1
299 100 2 0.00 4.130 44.040 101.410 #  CL2
300 100 3 0.00 0.760 46.970 101.250 #  CL3
301 101 1 0.00 2.930 45.310 106.280 #  CL1
302 101 2 0.00 1.030 46.870 106.610 #  CL2
303 101 3 0.00 4.420 43.870 106.370 #  CL3
304 102 1 0.00 2.250 45.590 111.470 #  CL1
305 102 2 0.00 4.130 44.040 111.800 #  CL2
306 102 3 0.00 0.760 46.970 111.640 #  CL3
307 103 1 0.00 2.930 45.310 116.670 #  CL1
308 103 2 0.00 1.030 46.870 117.000 #  CL2
309 103 3 0.00 4.420 43.870 116.760 #  CL3
310 104 1 0.00 2.250 45.590 121.860 #  CL1
311 104 2 0.00 4.130 44.040 122.180 #  CL2
312 104 3 0.00 0.770 46.970 122.030 #  CL3
313 105 1 0.00 2.940 45.310 127.050 #  CL1
314 105 2 0.00 1.030 46.870 127.390 #  CL2
315 105 3 0.00 4.420 43.870 127.150 #  CL3
316 106 1 0.00 2.250 45.590 132.250 #  CL1
317 106 2 0.00 4.130 44.040 132.570 #  CL2
318 106 3 0.00 0.770 46.970 132.420 #  CL3
319 107 1 0.00 2.940 45.310 137.440 #  CL1
320 107 2 0.00 1.030 46.870 137.780 #  CL2
321 107 3 0.00 4.420 43.870 137.530 #  CL3
322 108 1 0.00 2.250 45.590 142.640 #  CL1
323 108 2 0.00 4.130 44.040 142.960 #  CL2
324 108 3 0.00 0.760 46.970 142.810 #  CL3
325 109 1 0.00 2.940 45.310 147.830 #  CL1
326 109 2 0.00 1.030 46.870 148.170 #  CL2
327 109 3 0.00 4.420 43.870 147.920 #  CL3
328 110 1 0.00 2.250 45.590 153.030 #  CL1
329 110 2 0.00 4.130 44.040 153.350 #  CL2
330 110 3 0.00 0.760 46.970 153.190 #  CL3
331 111 1 0.00 2.940 45.310 158.220 #  CL1
332 111 2 0.00 1.030 46.870 158.560 #  CL2
333 111 3 0.00 4.420 43.870 158.310 #  CL3
334 112 1 0.00 2.250 45.590 163.420 #  CL1
335 112 2 0.00 4.130 44.040 163.740 #  CL2
336 112 3 0.00 0.760 46.970 163.580 #  CL3
337 113 1 0.00 2.930 45.310 168.610 #  CL1
338 113 2 0.00 1.030 46.870 168.940 #  CL2
339 113 3 0.00 4.420 43.870 168.700 #  CL3
340 114 1 0.00 2.250 45.590 173.810 #  CL1
341 114 2 0.00 4.130 44.040 174.130 #  CL2
342 114 3 0.00 0.760 46.970 173.970 #  CL3
343 115 1 0.00 2.930 45.310 179.000 #  CL1
344 115 2 0.00 1.030 46.870 179.330 #  CL2
345 115 3 0.00 4.420 43.870 179.090 #  CL3
346 116 1 0.00 2.250 45.590 184.190 #  CL1
347 116 2 0.00 4.130 44.040 184.520 #  CL2
348 116 3 0.00 0.760 46.970 184.360 #  CL3
349 117 1 0.00 2.930 45.310 189.380 #  CL1
350 117 2 0.00 1.030 46.870 189.720 #  CL2
351 117 3 0.00 4.420 43.870 189.480 #  CL3
352 118 1 0.00 2.250 45.590 194.580 #  CL1
353 118 2 0.00 4.130 44.040 194.900 #  CL2
354 118 3 0.00 0.770 46.970 194.750 #  CL3
355 119 1 0.00 2.940 45.310 199.770 #  CL1
356 119 2 0.00 1.030 46.870 200.110 #  CL2
357 119 3 0.00 4.420 43.870 199.870 #  CL3
358 120 1 0.00 2.250 45.590 204.970 #  CL1
359 120 2 0.00 4.130 44.040 205.290 #  CL2
360 120 3 0.00 0.770 46.970 205.140 #  CL3
361 121 1 0.00 2.940 50.640 2.390 #  CL1
362 121 2 0.00 1.030 52.200 2.730 #  CL2
363 121 3 0.00 4.420 49.200 2.480 #  CL3
364 122 1 0.00 2.250 50.920 7.590 #  CL1
365 122 2 0.00 4.130 49.370 7.910 #  CL2
366 122 3 0.00 0.760 52.300 7.760 #  CL3
367 123 1 0.00 2.940 50.640 12.780 #  CL1
368 123 2 0.00 1.030 52.200 13.120 #  CL2
369 123 3 0.00 4.420 49.200 12.870 #  CL3
370 124 1 0.00 2.250 50.920 17.980 #  CL1
371 124 2 0.00 4.130 49.370 18.300 #  CL2
372 124 3 0.00 0.760 52.300 18.140 #  CL3
373 125 1 0.00 2.940 50.640 23.170 #  CL1
374 125 2 0.00 1.030 52.200 23.510 #  CL2
375 125 3 0.00 4.420 49.200 23.260 #  CL3
376 126 1 0.00 2.250 50.920 28.370 #  CL1
377 126 2 0.00 4.130 49.370 28.690 #  CL2
378 126 3 0.00 0.760 52.300 28.530 #  CL3
379 127 1 0.00 2.930 50.640 33.560 #  CL1
380 127 2 0.00 1.030 52.200 33.890 #  CL2
381 127 3 0.00 4.420 49.200 33.650 #  CL3
382 128 1 0.00 2.250 50.920 38.760 #  CL1
383 128 2 0.00 4.130 49.370 39.080 #  CL2
384 128 3 0.00 0.760 52.300 38.920 #  CL3
385 129 1 0.00 2.930 50.640 43.950 #  CL1
386 129 2 0.00 1.030 52.200 44.280 #  CL2
387 129 3 0.00 4.420 49.200 44.040 #  CL3
388 130 1 0.00 2.250 50.920 49.140 #  CL1
389 130 2 0.00 4.130 49.370 49.470 #  CL2
390 130 3 0.00 0.760 52.300 49.310 #  CL3
391 131 1 0.00 2.930 50.640 54.330 #  CL1
392 131 2 0.00 1.030 52.200 54.670 #  CL2
393 131 3 0.00 4.420 49.200 54.430 #  CL3
394 132 1 0.00 2.250 50.920 59.530 #  CL1
395 132 2 0.00 4.130 49.370 59.850 #  CL2
396 132 3 0.00 0.770 52.300 59.700 #  CL3
397 133 1 0.00 2.940 50.640 64.720 #  CL1
398 133 2 0.00 1.030 52.200 65.060 #  CL2
399 133 3 0.00 4.420 49.200 64.810 #  CL3
400 134 1 0.00 2.250 50.920 69.920 #  CL1
401 134 2 0.00 4.130 49.370 70.240 #  CL2
402 134 3 0.00 0.760 52.300 70.090 #  CL3
403 135 1 0.00 2.940 50.640 75.110 #  CL1
404 135 2 0.00 1.030 52.200 75.450 #  CL2
405 135 3 0.00 4.420 49.200 75.200 #  CL3
406 136 1 0.00 2.250 50.920 80.310 #  CL1
407 136 2 0.00 4.130 49.370 80.630 #  CL2
408 136 3 0.00 0.760 52.300 80.470 #  CL3
409 137 1 0.00 2.940 50.640 85.500 #  CL1
410 137 2 0.00 1.030 52.200 85.840 #  CL2
411 137 3 0.00 4.420 49.200 85.590 #  CL3
412 138 1 0.00 2.250 50.920 90.700 #  CL1
413 138 2 0.00 4.130 49.370 91.020 #  CL2
414 138 3 0.00 0.760 52.300 90.860 #  CL3
415 139 1 0.00 2.940 50.640 95.890 #  CL1
416 139 2 0.00 1.030 52.200 96.220 #  CL2
417 139 3 0.00 4.420 49.200 95.980 #  CL3
418 140 1 0.00 2.250 50.920 101.090 #  CL1
419 140 2 0.00 4.130 49.370 101.410 #  CL2
420 140 3 0.00 0.760 52.300 101.250 #  CL3
421 141 1 0.00 2.930 50.640 106.280 #  CL1
422 141 2 0.00 1.030 52.200 106.610 #  CL2
423 141 3 0.00 4.420 49.200 106.370 #  CL3
424 142 1 0.00 2.250 50.920 111.470 #  CL1
425 142 2 0.00 4.130 49.370 111.800 #  CL2
426 142 3 0.00 0.760 52.300 111.640 #  CL3
427 143 1 0.00 2.930 50.640 116.670 #  CL1
428 143 2 0.00 1.030 52.200 117.000 #  CL2
429 143 3 0.00 4.420 49.200 116.760 #  CL3
430 144 1 0.00 2.250 50.920 121.860 #  CL1
431 144 2 0.00 4.130 49.370 122.180 #  CL2
432 144 3 0.00 0.770 52.300 122.030 #  CL3
433 145 1 0.00 2.940 50.640 127.050 #  CL1
434 145 2 0.00 1.030 52.200 127.390 #  CL2
435 145 3 0.00 4.420 49.200 127.150 #  CL3
436 146 1 0.00 2.250 50.920 132.250 #  CL1
437 146 2 0.00 4.130 49.370 132.570 #  CL2
438 146 3 0.00 0.770 52.300 132.420 #  CL3
439 147 1 0.00 2.940 50.640 137.440 #  CL1
440 147 2 0.00 1.030 52.200 137.780 #  CL2
441 147 3 0.00 4.420 49.200 137.530 #  CL3
442 148 1 0.00 2.250 50.920 142.640 #  CL1
443 148 2 0.00 4.130 49.370 142.960 #  CL2
444 148 3 0.00 0.760 52.300 142.810 #  CL3
445 149 1 0.00 2.940 50.640 147.830 #  CL1
446 149 2 0.00 1.030 52.200 148.170 #  CL2
447 149 3 0.00 4.420 49.200 147.920 #  CL3
448 150 1 0.00 2.250 50.920 153.030 #  CL1
449 150 2 0.00 4.130 49.370 153.350 #  CL2
450 150 3 0.00 0.760 52.300 153.190 #  CL3
451 151 1 0.00 2.940 50.640 158.220 #  CL1
452 151 2 0.00 1.030 52.200 158.560 #  CL2
453 151 3 0.00 4.420 49.200 158.310 #  CL3
454 152 1 0.00 2.250 50.920 163.420 #  CL1
455 152 2 0.00 4.130 49.370 163.740 #  CL2
456 152 3 0.00 0.760 52.300 163.580 #  CL3
457 153 1 0.00 2.930 50.640 168.610 #  CL1
458 153 2 0.00 1.030 52.200 168.940 #  CL2
459 153 3 0.00 4.420 49.200 168.700 #  CL3
460 154 1 0.00 2.250 50.920 173.810 #  CL1
461 154 2 0.00 4.130 49.370 174.130 #  CL2
462 154 3 0.00 0.760 52.300 173.970 #  CL3
463 155 1 0.00 2.930 50.640 179.000 #  CL1
464 155 2 0.00 1.030 52.200 179.330 #  CL2
465 155 3 0.00 4.420 49.200 179.090 #  CL3
466 156 1 0.00 2.250 50.920 184.190 #  CL1
467 156 2 0.00 4.130 49.370 184.520 #  CL2
468 156 3 0.00 0.760 52.300 184.360 #  CL3
469 157 1 0.00 2.930 50.640 189.380 #  CL1
470 157 2 0.00 1.030 52.200 189.720 #  CL2
471 157 3 0.00 4.420 49.200 189.480 #  CL3
472 158 1 0.00 2.250 50.920 194.580 #  CL1
473 158 2 0.00 4.130 49.370 194.900 #  CL2
474 158 3 0.00 0.770 52.300 194.750 #  CL3
475 159 1 0.00 2.940 50.640 199.770 #  CL1
476 159 2 0.00 1.030 52.200 200.110 #  CL2
477 159 3 0.00 4.420 49.200 199.870 #  CL3
478 160 1 0.00 2.250 50.920 204.970 #  CL1
479 160 2 0.00 4.130 49.370 205.290 #  CL2
480 160 3 0.00 0.770 52.300 205.140 #  CL3
481 161 1 0.00 2.940 55.960 2.390 #  CL1
482 161 2 0.00 1.030 57.520 2.730 #  CL2
483 161 3 0.00 4.420 54.520 2.480 #  CL3
484 162 1 0.00 2.250 56.240 7.590 #  CL1
485 162 2 0.00 4.130 54.690 7.910 #  CL2
486 162 3 0.00 0.760 57.620 7.760 #  CL3
487 163 1 0.00 2.940 55.960 12.780 #  CL1
488 163 2 0.00 1.030 57.520 13.120 #  CL2
489 163 3 0.00 4.420 54.520 12.870 #  CL3
490 164 1 0.00 2.250 56.240 17.980 #  CL1
491 164 2 0.00 4.130 54.690 18.300 #  CL2
492 164 3 0.00 0.760 57.620 18.140 #  CL3
493 165 1 0.00 2.940 55.960 23.170 #  CL1
494 165 2 0.00 1.030 57.520 23.510 #  CL2
495 165 3 0.00 4.420 54.520 23.260 #  CL3
496 166 1 0.00 2.250 56.240 28.370 #  CL1
497 166 2 0.00 4.130 54.690 28.690 #  CL2
498 166 3 0.00 0.760 57.620 28.530 #  CL3
499 167 1 0.00 2.930 55.960 33.560 #  CL1
500 167 2 0.00 1.030 57.520 33.890 #  CL2
501 167 3 0.00 4.420 54.520 33.650 #  CL3
502 168 1 0.00 2.250 56.240 38.760 #  CL1
503 168 2 0.00 4.130 54.690 39.080 #  CL2
504 168 3 0.00 0.760 57.620 38.920 #  CL3
505 169 1 0.00 2.930 55.960 43.950 #  CL1
506 169 2 0.00 1.030 57.520 44.280 #  CL2
507 169 3 0.00 4.420 54.520 44.040 #  CL3
508 170 1 0.00 2.250 56.240 49.140 #  CL1
509 170 2 0.00 4.130 54.690 49.470 #  CL2
510 170 3 0.00 0.760 57.620 49.310 #  CL3
511 171 1 0.00 2.930 55.960 54.330 #  CL1
512 171 2 0.00 1.030 57.520 54.670 #  CL2
513 171 3 0.00 4.420 54.520 54.430 #  CL3
514 172 1 0.00 2.250 56.240 59.530 #  CL1
515 172 2 0.00 4.130 54.690 59.850 #  CL2
516 172 3 0.00 0.770 57.620 59.700 #  CL3
517 173 1 0.00 2.940 55.960 64.720 #  CL1
518 173 2 0.00 1.030 57.520 65.060 #  CL2
519 173 3 0.00 4.420 54.520 64.810 #  CL3
520 174 1 0.00 2.250 56.240 69.920 #  CL1
521 174 2 0.00 4.130 54.690 70.240 #  CL2
522 174 3 0.00 0.760 57.620 70.090 #  CL3
523 175 1 0.00 2.940 55.960 75.110 #  CL1
524 175 2 0.00 1.030 57.520 75.450 #  CL2
525 175 3 0.00 4.420 54.520 75.200 #  CL3
526 176 1 0.00 2.250 56.240 80.310 #  CL1
527 176 2 0.00 4.130 54.690 80.630 #  CL2
528 176 3 0.00 0.760 57.620 80.470 #  CL3
529 177 1 0.00 2.940 55.960 85.500 #  CL1
530 177 2 0.00 1.030 57.520 85.840 #  CL2
531 177 3 0.00 4.420 54.520 85.590 #  CL3
532 178 1 0.00 2.250 56.240 90.700 #  CL1
533 178 2 0.00 4.130 54.690 91.020 #  CL2
534 178 3 0.00 0.760 57.620 90.860 #  CL3
535 179 1 0.00 2.940 55.960 95.890 #  CL1
536 179 2 0.00 1.030 57.520 96.220 #  CL2
537 179 3 0.00 4.420 54.520 95.980 #  CL3
538 180 1 0.00 2.250 56.240 101.090 #  CL1
539 180 2 0.00 4.130 54.690 101.410 #  CL2
540 180 3 0.00 0.760 57.620 101.250 #  CL3
541 181 1 0.00 2.930 55.960 106.280 #  CL1
542 181 2 0.00 1.030 57.520 106.610 #  CL2
543 181 3 0.00 4.420 54.520 106.370 #  CL3
544 182 1 0.00 2.250 56.240 111.470 #  CL1
545 182 2 0.00 4.130 54.690 111.800 #  CL2
546 182 3 0.00 0.760 57.620 111.640 #  CL3
547 183 1 0.00 2.930 55.960 116.670 #  CL1
548 183 2 0.00 1.030 57.520 117.000 #  CL2
549 183 3 0.00 4.420 54.520 116.760 #  CL3
550 184 1 0.00 2.250 56.240 121.860 #  CL1
551 184 2 0.00 4.130 54.690 122.180 #  CL2
552 184 3 0.00 0.770 57.620 122.030 #  CL3
553 185 1 0.00 2.940 55.960 127.050 #  CL1
554 185 2 0.00 1.030 57.520 127.390 #  CL2
555 185 3 0.00 4.420 54.520 127.150 #  CL3
556 186 1 0.00 2.250 56.240 132.250 #  CL1
557 186 2 0.00 4.130 54.690 132.570 #  CL2
558 186 3 0.00 0.770 57.620 132.420 #  CL3
559 187 1 0.00 2.940 55.960 137.440 #  CL1
560 187 2 0.00 1.030 57.520 137.780 #  CL2
561 187 3 0.00 4.420 54.520 137.530 #  CL3
562 188 1 0.00 2.250 56.240 142.640 #  CL1
563 188 2 0.00 4.130 54.690 142.960 #  CL2
564 188 3 0.00 0.760 57.620 142.810 #  CL3
565 189 1 0.00 2.940 55.960 147.830 #  CL1
566 189 2 0.00 1.030 57.520 148.170 #  CL2
567 189 3 0.00 4.420 54.520 147.920 #  CL3
568 190 1 0.00 2.250 56.240 153.030 #  CL1
569 190 2 0.00 4.130 54.690 153.350 #  CL2
570 190 3 0.00 0.760 57.620 153.190 #  CL3
571 191 1 0.00 2.940 55.960 158.220 #  CL1
572 191 2 0.00 1.030 57.520 158.560 #  CL2
573 191 3 0.00 4.420 54.520 158.310 #  CL3
574 192 1 0.00 2.250 56.240 163.420 #  CL1
575 192 2 0.00 4.130 54.690 163.740 #  CL2
576 192 3 0.00 0.760 57.620 163.580 #  CL3
577 193 1 0.00 2.930 55.960 168.610 #  CL1
578 193 2 0.00 1.030 57.520 168.940 #  CL2
579 193 3 0.00 4.420 54.520 168.700 #  CL3
580 194 1 0.00 2.250 56.240 173.810 #  CL1
581 194 2 0.00 4.130 54.690 174.130 #  CL2
582 194 3 0.00 0.760 57.620 173.970 #  CL3
583 195 1 0.00 2.930 55.960 179.000 #  CL1
584 195 2 0.00 1.030 57.520 179.330 #  CL2
585 195 3 0.00 4.420 54.520 179.090 #  CL3
586 196 1 0.00 2.250 56.240 184.190 #  CL1
587 196 2 0.00 4.130 54.690 184.520 #  CL2
588 196 3 0.00 0.760 57.620 184.360 #  CL3
589 197 1 0.00 2.930 55.960 189.380 #  CL1
590 197 2 0.00 1.030 57.520 189.720 #  CL2
591 197 3 0.00 4.420 54.520 189.480 #  CL3
592 198 1 0.00 2.250 56.240 194.580 #  CL1
593 198 2 0.00 4.130 54.690 194.900 #  CL2
594 198 3 0.00 0.770 57.620 194.750 #  CL3
595 199 1 0.00 2.940 55.960 199.770 #  CL1
596 199 2 0.00 1.030 57.520 200.110 #  CL2
597 199 3 0.00 4.420 54.520 199.870 #  CL3
598 200 1 0.00 2.250 56.240 204.970 #  CL1
599 200 2 0.00 4.130 54.690 205.290 #  CL2
600 200 3 0.00 0.770 57.620 205.140 #  CL3
601 201 1 0.00 2.940 61.280 2.390 #  CL1
602 201 2 0.00 1.030 62.840 2.730 #  CL2
603 201 3 0.00 4.420 59.840 2.480 #  CL3
604 202 1 0.00 2.250 61.560 7.590 #  CL1
605 202 2 0.00 4.130 60.010 7.910 #  CL2
606 202 3 0.00 0.760 62.940 7.760 #  CL3
607 203 1 0.00 2.940 61.280 12.780 #  CL1
608 203 2 0.00 1.030 62.840 13.120 #  CL2
609 203 3 0.00 4.420 59.840 12.870 #  CL3
610 204 1 0.00 2.250 61.560 17.980 #  CL1
611 204 2 0.00 4.130 60.010 18.300 #  CL2
612 204 3 0.00 0.760 62.940 18.140 #  CL3
613 205 1 0.00 2.940 61.280 23.170 #  CL1
614 205 2 0.00 1.030 62.840 23.510 #  CL2
615 205 3 0.00 4.420 59.840 23.260 #  CL3
616 206 1 0.00 2.250 61.560 28.370 #  CL1
617 206 2 0.00 4.130 60.010 28.690 #  CL2
618 206 3 0.00 0.760 62.940 28.530 #  CL3
619 207 1 0.00 2.930 61.280 33.560 #  CL1
620 207 2 0.00 1.030 62.840 33.890 #  CL2
621 207 3 0.00 4.420 59.840 33.650 #  CL3
622 208 1 0.00 2.250 61.560 38.760 #  CL1
623 208 2 0.00 4.130 60.010 39.080 #  CL2
624 208 3 0.00 0.760 62.940 38.920 #  CL3
625 209 1 0.00 2.930 61.280 43.950 #  CL1
626 209 2 0.00 1.030 62.840 44.280 #  CL2
627 209 3 0.00 4.420 59.840 44.040 #  CL3
628 210 1 0.00 2.250 61.560 49.140 #  CL1
629 210 2 0.00 4.130 60.010 49.470 #  CL2
630 210 3 0.00 0.760 62.940 49.310 #  CL3
631 211 1 0.00 2.930 61.280 54.330 #  CL1
632 211 2 0.00 1.030 62.840 54.670 #  CL2
633 211 3 0.00 4.420 59.840 54.430 #  CL3
634 212 1 0.00 2.250 61.560 59.530 #  CL1
635 212 2 0.00 4.130 60.010 59.850 #  CL2
636 212 3 0.00 0.770 62.940 59.700 #  CL3
637 213 1 0.00 2.940 61.280 64.720 #  CL1
638 213 2 0.00 1.030 62.840 65.060 #  CL2
639 213 3 0.00 4.420 59.840 64.810 #  CL3
640 214 1 0.00 2.250 61.560 69.920 #  CL1
641 214 2 0.00 4.130 60.010 70.240 #  CL2
642 214 3 0.00 0.760 62.940 70.090 #  CL3
643 215 1 0.00 2.940 61.280 75.110 #  CL1
644 215 2 0.00 1.030 62.840 75.450 #  CL2
645 215 3 0.00 4.420 59.840 75.200 #  CL3
646 216 1 0.00 2.250 61.560 80.310 #  CL1
647 216 2 0.00 4.130 60.010 80.630 #  CL2
648 216 3 0.00 0.760 62.940 80.470 #  CL3
649 217 1 0.00 2.940 61.280 85.500 #  CL1
650 217 2 0.00 1.030 62.840 85.840 #  CL2
651 217 3 0.00 4.420 59.840 85.590 #  CL3
652 218 1 0.00 2.250 61.560 90.700 #  CL1
653 218 2 0.00 4.130 60.010 91.020 #  CL2
654 218 3 0.00 0.760 62.940 90.860 #  CL3
655 219 1 0.00 2.940 61.280 95.890 #  CL1
656 219 2 0.00 1.030 62.840 96.220 #  CL2
657 219 3 0.00 4.420 59.840 95.980 #  CL3
658 220 1 0.00 2.250 61.560 101.090 #  CL1
659 220 2 0.00 4.130 60.010 101.410 #  CL2
660 220 3 0.00 0.760 62.940 101.250 #  CL3
661 221 1 0.00 2.930 61.280 106.280 #  CL1
662 221 2 0.00 1.030 62.840 106.610 #  CL2
663 221 3 0.00 4.420 59.840 106.370 #  CL3
664 222 1 0.00 2.250 61.560 111.470 #  CL1
665 222 2 0.00 4.130 60.010 111.800 #  CL2
666 222 3 0.00 0.760 62.940 111.640 #  CL3
667 223 1 0.00 2.930 61.280 116.670 #  CL1
668 223 2 0.00 1.030 62.840 117.000 #  CL2
669 223 3 0.00 4.420 59.840 116.760 #  CL3
670 224 1 0.00 2.250 61.560 121.860 #  CL1
671 224 2 0.00 4.130 60.010 122.180 #  CL2
672 224 3 0.00 0.770 62.940 122.030 #  CL3
673 225 1 0.00 2.940 61.280 127.050 #  CL1
674 225 2 0.00 1.030 62.840 127.390 #  CL2
675 225 3 0.00 4.420 59.840 127.150 #  CL3
676 226 1 0.00 2.250 61.560 132.250 #  CL1
677 226 2 0.00 4.130 60.010 132.570 #  CL2
678 226 3 0.00 0.770 62.940 132.420 #  CL3
679 227 1 0.00 2.940 61.280 137.440 #  CL1
680 227 2 0.00 1.030 62.840 137.780 #  CL2
681 227 3 0.00 4.420 59.840 137.530 #  CL3
682 228 1 0.00 2.250 61.560 142.640 #  CL1
683 228 2 0.00 4.130 60.010 142.960 #  CL2
684 228 3 0.00 0.760 62.940 142.810 #  CL3
685 229 1 0.00 2.940 61.280 147.830 #  CL1
686 229 2 0.00 1.030 62.840 148.170 #  CL2
687 229 3 0.00 4.420 59.840 147.920 #  CL3
688 230 1 0.00 2.250 61.560 153.030 #  CL1
689 230 2 0.00 4.130 60.010 153.350 #  CL2
690 230 3 0.00 0.760 62.940 153.190 #  CL3
691 231 1 0.00 2.940 61.280 158.220 #  CL1
692 231 2 0.00 1.030 62.840 158.560 #  CL2
693 231 3 0.00 4.420 59.840 158.310 #  CL3
694 232 1 0.00 2.250 61.560 163.420 #  CL1
695 232 2 0.00 4.130 60.010 163.740 #  CL2
696 232 3 0.00 0.760 62.940 163.580 #  CL3
697 233 1 0.00 2.930 61.280 168.610 #  CL1
698 233 2 0.00 1.030 62.840 168.940 #  CL2
699 233 3 0.00 4.420 59.840 168.700 #  CL3
700 234 1 0.00 2.250 61.560 173.810 #  CL1
701 234 2 0.00 4.130 60.010 174.130 #  CL2
702 234 3 0.00 0.760 62.940 173.970 #  CL3
703 235 1 0.00 2.930 61.280 179.000 #  CL1
704 235 2 0.00 1.030 62.840 179.330 #  CL2
705 235 3 0.00 4.420 59.840 179.090 #  CL3
706 236 1 0.00 2.250 61.560 184.190 #  CL1
707 236 2 0.00 4.130 60.010 184.520 #  CL2
708 236 3 0.00 0.760 62.940 184.360 #  CL3
709 237 1 0.00 2.930 61.280 189.380 #  CL1
710 237 2 0.00 1.030 62.840 189.720 #  CL2
711 237 3 0.00 4.420 59.840 189.480 #  CL3